V -t * -v 1.0a5 -a 0
A -t * -n 1 -p 0 -o 0x7fffffff -c 30 -a 1
A -t * -h 1 -m 1073741823 -s 0
c -t * -i 1 -n Blue
c -t * -i 2 -n Red
n -t * -a 4 -s 4 -S UP -v circle -c black -i black
n -t * -a 0 -s 0 -S UP -v circle -c black -i black
n -t * -a 5 -s 5 -S UP -v circle -c black -i black
n -t * -a 1 -s 1 -S UP -v circle -c black -i black
n -t * -a 2 -s 2 -S UP -v circle -c black -i black
n -t * -a 3 -s 3 -S UP -v circle -c black -i black
l -t * -s 0 -d 2 -S UP -r 2000000 -D 0.01 -c black
l -t * -s 1 -d 2 -S UP -r 2000000 -D 0.01 -c black
l -t * -s 2 -d 3 -S UP -r 300000 -D 0.10000000000000001 -c black
l -t * -s 3 -d 4 -S UP -r 500000 -D 0.040000000000000001 -c black
l -t * -s 3 -d 5 -S UP -r 500000 -D 0.029999999999999999 -c black
q -t * -s 3 -d 2 -a 0.5
q -t * -s 2 -d 3 -a 0.5
+ -t 0.5 -s 0 -d 2 -p tcp -e 40 -c 2 -i 0 -a 2 -x {0.0 4.0 0 ------- null}
- -t 0.5 -s 0 -d 2 -p tcp -e 40 -c 2 -i 0 -a 2 -x {0.0 4.0 0 ------- null}
h -t 0.5 -s 0 -d 2 -p tcp -e 40 -c 2 -i 0 -a 2 -x {0.0 4.0 -1 ------- null}
r -t 0.51016 -s 0 -d 2 -p tcp -e 40 -c 2 -i 0 -a 2 -x {0.0 4.0 0 ------- null}
+ -t 0.51016 -s 2 -d 3 -p tcp -e 40 -c 2 -i 0 -a 2 -x {0.0 4.0 0 ------- null}
- -t 0.51016 -s 2 -d 3 -p tcp -e 40 -c 2 -i 0 -a 2 -x {0.0 4.0 0 ------- null}
h -t 0.51016 -s 2 -d 3 -p tcp -e 40 -c 2 -i 0 -a 2 -x {0.0 4.0 -1 ------- null}
r -t 0.611226666666667 -s 2 -d 3 -p tcp -e 40 -c 2 -i 0 -a 2 -x {0.0 4.0 0 ------- null}
+ -t 0.611226666666667 -s 3 -d 4 -p tcp -e 40 -c 2 -i 0 -a 2 -x {0.0 4.0 0 ------- null}
- -t 0.611226666666667 -s 3 -d 4 -p tcp -e 40 -c 2 -i 0 -a 2 -x {0.0 4.0 0 ------- null}
h -t 0.611226666666667 -s 3 -d 4 -p tcp -e 40 -c 2 -i 0 -a 2 -x {0.0 4.0 -1 ------- null}
r -t 0.651866666666667 -s 3 -d 4 -p tcp -e 40 -c 2 -i 0 -a 2 -x {0.0 4.0 0 ------- null}
+ -t 0.651866666666667 -s 4 -d 3 -p ack -e 40 -c 2 -i 1 -a 2 -x {4.0 0.0 0 ------- null}
- -t 0.651866666666667 -s 4 -d 3 -p ack -e 40 -c 2 -i 1 -a 2 -x {4.0 0.0 0 ------- null}
h -t 0.651866666666667 -s 4 -d 3 -p ack -e 40 -c 2 -i 1 -a 2 -x {4.0 0.0 -1 ------- null}
r -t 0.692506666666667 -s 4 -d 3 -p ack -e 40 -c 2 -i 1 -a 2 -x {4.0 0.0 0 ------- null}
+ -t 0.692506666666667 -s 3 -d 2 -p ack -e 40 -c 2 -i 1 -a 2 -x {4.0 0.0 0 ------- null}
- -t 0.692506666666667 -s 3 -d 2 -p ack -e 40 -c 2 -i 1 -a 2 -x {4.0 0.0 0 ------- null}
h -t 0.692506666666667 -s 3 -d 2 -p ack -e 40 -c 2 -i 1 -a 2 -x {4.0 0.0 -1 ------- null}
r -t 0.793573333333333 -s 3 -d 2 -p ack -e 40 -c 2 -i 1 -a 2 -x {4.0 0.0 0 ------- null}
+ -t 0.793573333333333 -s 2 -d 0 -p ack -e 40 -c 2 -i 1 -a 2 -x {4.0 0.0 0 ------- null}
- -t 0.793573333333333 -s 2 -d 0 -p ack -e 40 -c 2 -i 1 -a 2 -x {4.0 0.0 0 ------- null}
h -t 0.793573333333333 -s 2 -d 0 -p ack -e 40 -c 2 -i 1 -a 2 -x {4.0 0.0 -1 ------- null}
r -t 0.803733333333333 -s 2 -d 0 -p ack -e 40 -c 2 -i 1 -a 2 -x {4.0 0.0 0 ------- null}
+ -t 0.803733333333333 -s 0 -d 2 -p tcp -e 592 -c 2 -i 2 -a 2 -x {0.0 4.0 1 ------- null}
- -t 0.803733333333333 -s 0 -d 2 -p tcp -e 592 -c 2 -i 2 -a 2 -x {0.0 4.0 1 ------- null}
h -t 0.803733333333333 -s 0 -d 2 -p tcp -e 592 -c 2 -i 2 -a 2 -x {0.0 4.0 -1 ------- null}
+ -t 0.803733333333333 -s 0 -d 2 -p tcp -e 592 -c 2 -i 3 -a 2 -x {0.0 4.0 2 ------- null}
- -t 0.806101333333333 -s 0 -d 2 -p tcp -e 592 -c 2 -i 3 -a 2 -x {0.0 4.0 2 ------- null}
h -t 0.806101333333333 -s 0 -d 2 -p tcp -e 592 -c 2 -i 3 -a 2 -x {0.0 4.0 -1 ------- null}
r -t 0.816101333333333 -s 0 -d 2 -p tcp -e 592 -c 2 -i 2 -a 2 -x {0.0 4.0 1 ------- null}
+ -t 0.816101333333333 -s 2 -d 3 -p tcp -e 592 -c 2 -i 2 -a 2 -x {0.0 4.0 1 ------- null}
- -t 0.816101333333333 -s 2 -d 3 -p tcp -e 592 -c 2 -i 2 -a 2 -x {0.0 4.0 1 ------- null}
h -t 0.816101333333333 -s 2 -d 3 -p tcp -e 592 -c 2 -i 2 -a 2 -x {0.0 4.0 -1 ------- null}
r -t 0.818469333333333 -s 0 -d 2 -p tcp -e 592 -c 2 -i 3 -a 2 -x {0.0 4.0 2 ------- null}
+ -t 0.818469333333333 -s 2 -d 3 -p tcp -e 592 -c 2 -i 3 -a 2 -x {0.0 4.0 2 ------- null}
- -t 0.831888 -s 2 -d 3 -p tcp -e 592 -c 2 -i 3 -a 2 -x {0.0 4.0 2 ------- null}
h -t 0.831888 -s 2 -d 3 -p tcp -e 592 -c 2 -i 3 -a 2 -x {0.0 4.0 -1 ------- null}
r -t 0.931888 -s 2 -d 3 -p tcp -e 592 -c 2 -i 2 -a 2 -x {0.0 4.0 1 ------- null}
+ -t 0.931888 -s 3 -d 4 -p tcp -e 592 -c 2 -i 2 -a 2 -x {0.0 4.0 1 ------- null}
- -t 0.931888 -s 3 -d 4 -p tcp -e 592 -c 2 -i 2 -a 2 -x {0.0 4.0 1 ------- null}
h -t 0.931888 -s 3 -d 4 -p tcp -e 592 -c 2 -i 2 -a 2 -x {0.0 4.0 -1 ------- null}
r -t 0.947674666666667 -s 2 -d 3 -p tcp -e 592 -c 2 -i 3 -a 2 -x {0.0 4.0 2 ------- null}
+ -t 0.947674666666667 -s 3 -d 4 -p tcp -e 592 -c 2 -i 3 -a 2 -x {0.0 4.0 2 ------- null}
- -t 0.947674666666667 -s 3 -d 4 -p tcp -e 592 -c 2 -i 3 -a 2 -x {0.0 4.0 2 ------- null}
h -t 0.947674666666667 -s 3 -d 4 -p tcp -e 592 -c 2 -i 3 -a 2 -x {0.0 4.0 -1 ------- null}
r -t 0.98136 -s 3 -d 4 -p tcp -e 592 -c 2 -i 2 -a 2 -x {0.0 4.0 1 ------- null}
r -t 0.997146666666667 -s 3 -d 4 -p tcp -e 592 -c 2 -i 3 -a 2 -x {0.0 4.0 2 ------- null}
+ -t 0.997146666666667 -s 4 -d 3 -p ack -e 40 -c 2 -i 4 -a 2 -x {4.0 0.0 2 ------- null}
- -t 0.997146666666667 -s 4 -d 3 -p ack -e 40 -c 2 -i 4 -a 2 -x {4.0 0.0 2 ------- null}
h -t 0.997146666666667 -s 4 -d 3 -p ack -e 40 -c 2 -i 4 -a 2 -x {4.0 0.0 -1 ------- null}
+ -t 1 -s 1 -d 2 -p cbr -e 500 -c 1 -i 5 -a 1 -x {1.0 5.0 0 ------- null}
- -t 1 -s 1 -d 2 -p cbr -e 500 -c 1 -i 5 -a 1 -x {1.0 5.0 0 ------- null}
h -t 1 -s 1 -d 2 -p cbr -e 500 -c 1 -i 5 -a 1 -x {1.0 5.0 -1 ------- null}
+ -t 1.005 -s 1 -d 2 -p cbr -e 500 -c 1 -i 6 -a 1 -x {1.0 5.0 1 ------- null}
- -t 1.005 -s 1 -d 2 -p cbr -e 500 -c 1 -i 6 -a 1 -x {1.0 5.0 1 ------- null}
h -t 1.005 -s 1 -d 2 -p cbr -e 500 -c 1 -i 6 -a 1 -x {1.0 5.0 -1 ------- null}
+ -t 1.01 -s 1 -d 2 -p cbr -e 500 -c 1 -i 7 -a 1 -x {1.0 5.0 2 ------- null}
- -t 1.01 -s 1 -d 2 -p cbr -e 500 -c 1 -i 7 -a 1 -x {1.0 5.0 2 ------- null}
h -t 1.01 -s 1 -d 2 -p cbr -e 500 -c 1 -i 7 -a 1 -x {1.0 5.0 -1 ------- null}
r -t 1.012 -s 1 -d 2 -p cbr -e 500 -c 1 -i 5 -a 1 -x {1.0 5.0 0 ------- null}
+ -t 1.012 -s 2 -d 3 -p cbr -e 500 -c 1 -i 5 -a 1 -x {1.0 5.0 0 ------- null}
- -t 1.012 -s 2 -d 3 -p cbr -e 500 -c 1 -i 5 -a 1 -x {1.0 5.0 0 ------- null}
h -t 1.012 -s 2 -d 3 -p cbr -e 500 -c 1 -i 5 -a 1 -x {1.0 5.0 -1 ------- null}
+ -t 1.015 -s 1 -d 2 -p cbr -e 500 -c 1 -i 8 -a 1 -x {1.0 5.0 3 ------- null}
- -t 1.015 -s 1 -d 2 -p cbr -e 500 -c 1 -i 8 -a 1 -x {1.0 5.0 3 ------- null}
h -t 1.015 -s 1 -d 2 -p cbr -e 500 -c 1 -i 8 -a 1 -x {1.0 5.0 -1 ------- null}
r -t 1.017 -s 1 -d 2 -p cbr -e 500 -c 1 -i 6 -a 1 -x {1.0 5.0 1 ------- null}
+ -t 1.017 -s 2 -d 3 -p cbr -e 500 -c 1 -i 6 -a 1 -x {1.0 5.0 1 ------- null}
+ -t 1.02 -s 1 -d 2 -p cbr -e 500 -c 1 -i 9 -a 1 -x {1.0 5.0 4 ------- null}
- -t 1.02 -s 1 -d 2 -p cbr -e 500 -c 1 -i 9 -a 1 -x {1.0 5.0 4 ------- null}
h -t 1.02 -s 1 -d 2 -p cbr -e 500 -c 1 -i 9 -a 1 -x {1.0 5.0 -1 ------- null}
r -t 1.022 -s 1 -d 2 -p cbr -e 500 -c 1 -i 7 -a 1 -x {1.0 5.0 2 ------- null}
+ -t 1.022 -s 2 -d 3 -p cbr -e 500 -c 1 -i 7 -a 1 -x {1.0 5.0 2 ------- null}
+ -t 1.025 -s 1 -d 2 -p cbr -e 500 -c 1 -i 10 -a 1 -x {1.0 5.0 5 ------- null}
- -t 1.025 -s 1 -d 2 -p cbr -e 500 -c 1 -i 10 -a 1 -x {1.0 5.0 5 ------- null}
h -t 1.025 -s 1 -d 2 -p cbr -e 500 -c 1 -i 10 -a 1 -x {1.0 5.0 -1 ------- null}
- -t 1.02533333333333 -s 2 -d 3 -p cbr -e 500 -c 1 -i 6 -a 1 -x {1.0 5.0 1 ------- null}
h -t 1.02533333333333 -s 2 -d 3 -p cbr -e 500 -c 1 -i 6 -a 1 -x {1.0 5.0 -1 ------- null}
r -t 1.027 -s 1 -d 2 -p cbr -e 500 -c 1 -i 8 -a 1 -x {1.0 5.0 3 ------- null}
+ -t 1.027 -s 2 -d 3 -p cbr -e 500 -c 1 -i 8 -a 1 -x {1.0 5.0 3 ------- null}
+ -t 1.03 -s 1 -d 2 -p cbr -e 500 -c 1 -i 11 -a 1 -x {1.0 5.0 6 ------- null}
- -t 1.03 -s 1 -d 2 -p cbr -e 500 -c 1 -i 11 -a 1 -x {1.0 5.0 6 ------- null}
h -t 1.03 -s 1 -d 2 -p cbr -e 500 -c 1 -i 11 -a 1 -x {1.0 5.0 -1 ------- null}
r -t 1.032 -s 1 -d 2 -p cbr -e 500 -c 1 -i 9 -a 1 -x {1.0 5.0 4 ------- null}
+ -t 1.032 -s 2 -d 3 -p cbr -e 500 -c 1 -i 9 -a 1 -x {1.0 5.0 4 ------- null}
+ -t 1.035 -s 1 -d 2 -p cbr -e 500 -c 1 -i 12 -a 1 -x {1.0 5.0 7 ------- null}
- -t 1.035 -s 1 -d 2 -p cbr -e 500 -c 1 -i 12 -a 1 -x {1.0 5.0 7 ------- null}
h -t 1.035 -s 1 -d 2 -p cbr -e 500 -c 1 -i 12 -a 1 -x {1.0 5.0 -1 ------- null}
r -t 1.037 -s 1 -d 2 -p cbr -e 500 -c 1 -i 10 -a 1 -x {1.0 5.0 5 ------- null}
+ -t 1.037 -s 2 -d 3 -p cbr -e 500 -c 1 -i 10 -a 1 -x {1.0 5.0 5 ------- null}
r -t 1.03778666666667 -s 4 -d 3 -p ack -e 40 -c 2 -i 4 -a 2 -x {4.0 0.0 2 ------- null}
+ -t 1.03778666666667 -s 3 -d 2 -p ack -e 40 -c 2 -i 4 -a 2 -x {4.0 0.0 2 ------- null}
- -t 1.03778666666667 -s 3 -d 2 -p ack -e 40 -c 2 -i 4 -a 2 -x {4.0 0.0 2 ------- null}
h -t 1.03778666666667 -s 3 -d 2 -p ack -e 40 -c 2 -i 4 -a 2 -x {4.0 0.0 -1 ------- null}
- -t 1.03866666666667 -s 2 -d 3 -p cbr -e 500 -c 1 -i 7 -a 1 -x {1.0 5.0 2 ------- null}
h -t 1.03866666666667 -s 2 -d 3 -p cbr -e 500 -c 1 -i 7 -a 1 -x {1.0 5.0 -1 ------- null}
+ -t 1.04 -s 1 -d 2 -p cbr -e 500 -c 1 -i 13 -a 1 -x {1.0 5.0 8 ------- null}
- -t 1.04 -s 1 -d 2 -p cbr -e 500 -c 1 -i 13 -a 1 -x {1.0 5.0 8 ------- null}
h -t 1.04 -s 1 -d 2 -p cbr -e 500 -c 1 -i 13 -a 1 -x {1.0 5.0 -1 ------- null}
r -t 1.042 -s 1 -d 2 -p cbr -e 500 -c 1 -i 11 -a 1 -x {1.0 5.0 6 ------- null}
+ -t 1.042 -s 2 -d 3 -p cbr -e 500 -c 1 -i 11 -a 1 -x {1.0 5.0 6 ------- null}
+ -t 1.045 -s 1 -d 2 -p cbr -e 500 -c 1 -i 14 -a 1 -x {1.0 5.0 9 ------- null}
- -t 1.045 -s 1 -d 2 -p cbr -e 500 -c 1 -i 14 -a 1 -x {1.0 5.0 9 ------- null}
h -t 1.045 -s 1 -d 2 -p cbr -e 500 -c 1 -i 14 -a 1 -x {1.0 5.0 -1 ------- null}
r -t 1.047 -s 1 -d 2 -p cbr -e 500 -c 1 -i 12 -a 1 -x {1.0 5.0 7 ------- null}
+ -t 1.047 -s 2 -d 3 -p cbr -e 500 -c 1 -i 12 -a 1 -x {1.0 5.0 7 ------- null}
+ -t 1.05 -s 1 -d 2 -p cbr -e 500 -c 1 -i 15 -a 1 -x {1.0 5.0 10 ------- null}
- -t 1.05 -s 1 -d 2 -p cbr -e 500 -c 1 -i 15 -a 1 -x {1.0 5.0 10 ------- null}
h -t 1.05 -s 1 -d 2 -p cbr -e 500 -c 1 -i 15 -a 1 -x {1.0 5.0 -1 ------- null}
r -t 1.052 -s 1 -d 2 -p cbr -e 500 -c 1 -i 13 -a 1 -x {1.0 5.0 8 ------- null}
+ -t 1.052 -s 2 -d 3 -p cbr -e 500 -c 1 -i 13 -a 1 -x {1.0 5.0 8 ------- null}
- -t 1.052 -s 2 -d 3 -p cbr -e 500 -c 1 -i 8 -a 1 -x {1.0 5.0 3 ------- null}
h -t 1.052 -s 2 -d 3 -p cbr -e 500 -c 1 -i 8 -a 1 -x {1.0 5.0 -1 ------- null}
+ -t 1.055 -s 1 -d 2 -p cbr -e 500 -c 1 -i 16 -a 1 -x {1.0 5.0 11 ------- null}
- -t 1.055 -s 1 -d 2 -p cbr -e 500 -c 1 -i 16 -a 1 -x {1.0 5.0 11 ------- null}
h -t 1.055 -s 1 -d 2 -p cbr -e 500 -c 1 -i 16 -a 1 -x {1.0 5.0 -1 ------- null}
r -t 1.057 -s 1 -d 2 -p cbr -e 500 -c 1 -i 14 -a 1 -x {1.0 5.0 9 ------- null}
+ -t 1.057 -s 2 -d 3 -p cbr -e 500 -c 1 -i 14 -a 1 -x {1.0 5.0 9 ------- null}
+ -t 1.06 -s 1 -d 2 -p cbr -e 500 -c 1 -i 17 -a 1 -x {1.0 5.0 12 ------- null}
- -t 1.06 -s 1 -d 2 -p cbr -e 500 -c 1 -i 17 -a 1 -x {1.0 5.0 12 ------- null}
h -t 1.06 -s 1 -d 2 -p cbr -e 500 -c 1 -i 17 -a 1 -x {1.0 5.0 -1 ------- null}
r -t 1.062 -s 1 -d 2 -p cbr -e 500 -c 1 -i 15 -a 1 -x {1.0 5.0 10 ------- null}
+ -t 1.062 -s 2 -d 3 -p cbr -e 500 -c 1 -i 15 -a 1 -x {1.0 5.0 10 ------- null}
+ -t 1.065 -s 1 -d 2 -p cbr -e 500 -c 1 -i 18 -a 1 -x {1.0 5.0 13 ------- null}
- -t 1.065 -s 1 -d 2 -p cbr -e 500 -c 1 -i 18 -a 1 -x {1.0 5.0 13 ------- null}
h -t 1.065 -s 1 -d 2 -p cbr -e 500 -c 1 -i 18 -a 1 -x {1.0 5.0 -1 ------- null}
- -t 1.06533333333333 -s 2 -d 3 -p cbr -e 500 -c 1 -i 9 -a 1 -x {1.0 5.0 4 ------- null}
h -t 1.06533333333333 -s 2 -d 3 -p cbr -e 500 -c 1 -i 9 -a 1 -x {1.0 5.0 -1 ------- null}
r -t 1.067 -s 1 -d 2 -p cbr -e 500 -c 1 -i 16 -a 1 -x {1.0 5.0 11 ------- null}
+ -t 1.067 -s 2 -d 3 -p cbr -e 500 -c 1 -i 16 -a 1 -x {1.0 5.0 11 ------- null}
+ -t 1.07 -s 1 -d 2 -p cbr -e 500 -c 1 -i 19 -a 1 -x {1.0 5.0 14 ------- null}
- -t 1.07 -s 1 -d 2 -p cbr -e 500 -c 1 -i 19 -a 1 -x {1.0 5.0 14 ------- null}
h -t 1.07 -s 1 -d 2 -p cbr -e 500 -c 1 -i 19 -a 1 -x {1.0 5.0 -1 ------- null}
r -t 1.072 -s 1 -d 2 -p cbr -e 500 -c 1 -i 17 -a 1 -x {1.0 5.0 12 ------- null}
+ -t 1.072 -s 2 -d 3 -p cbr -e 500 -c 1 -i 17 -a 1 -x {1.0 5.0 12 ------- null}
+ -t 1.075 -s 1 -d 2 -p cbr -e 500 -c 1 -i 20 -a 1 -x {1.0 5.0 15 ------- null}
- -t 1.075 -s 1 -d 2 -p cbr -e 500 -c 1 -i 20 -a 1 -x {1.0 5.0 15 ------- null}
h -t 1.075 -s 1 -d 2 -p cbr -e 500 -c 1 -i 20 -a 1 -x {1.0 5.0 -1 ------- null}
r -t 1.077 -s 1 -d 2 -p cbr -e 500 -c 1 -i 18 -a 1 -x {1.0 5.0 13 ------- null}
+ -t 1.077 -s 2 -d 3 -p cbr -e 500 -c 1 -i 18 -a 1 -x {1.0 5.0 13 ------- null}
- -t 1.07866666666667 -s 2 -d 3 -p cbr -e 500 -c 1 -i 10 -a 1 -x {1.0 5.0 5 ------- null}
h -t 1.07866666666667 -s 2 -d 3 -p cbr -e 500 -c 1 -i 10 -a 1 -x {1.0 5.0 -1 ------- null}
+ -t 1.08 -s 1 -d 2 -p cbr -e 500 -c 1 -i 21 -a 1 -x {1.0 5.0 16 ------- null}
- -t 1.08 -s 1 -d 2 -p cbr -e 500 -c 1 -i 21 -a 1 -x {1.0 5.0 16 ------- null}
h -t 1.08 -s 1 -d 2 -p cbr -e 500 -c 1 -i 21 -a 1 -x {1.0 5.0 -1 ------- null}
r -t 1.082 -s 1 -d 2 -p cbr -e 500 -c 1 -i 19 -a 1 -x {1.0 5.0 14 ------- null}
+ -t 1.082 -s 2 -d 3 -p cbr -e 500 -c 1 -i 19 -a 1 -x {1.0 5.0 14 ------- null}
+ -t 1.085 -s 1 -d 2 -p cbr -e 500 -c 1 -i 22 -a 1 -x {1.0 5.0 17 ------- null}
- -t 1.085 -s 1 -d 2 -p cbr -e 500 -c 1 -i 22 -a 1 -x {1.0 5.0 17 ------- null}
h -t 1.085 -s 1 -d 2 -p cbr -e 500 -c 1 -i 22 -a 1 -x {1.0 5.0 -1 ------- null}
r -t 1.087 -s 1 -d 2 -p cbr -e 500 -c 1 -i 20 -a 1 -x {1.0 5.0 15 ------- null}
+ -t 1.087 -s 2 -d 3 -p cbr -e 500 -c 1 -i 20 -a 1 -x {1.0 5.0 15 ------- null}
+ -t 1.09 -s 1 -d 2 -p cbr -e 500 -c 1 -i 23 -a 1 -x {1.0 5.0 18 ------- null}
- -t 1.09 -s 1 -d 2 -p cbr -e 500 -c 1 -i 23 -a 1 -x {1.0 5.0 18 ------- null}
h -t 1.09 -s 1 -d 2 -p cbr -e 500 -c 1 -i 23 -a 1 -x {1.0 5.0 -1 ------- null}
r -t 1.092 -s 1 -d 2 -p cbr -e 500 -c 1 -i 21 -a 1 -x {1.0 5.0 16 ------- null}
+ -t 1.092 -s 2 -d 3 -p cbr -e 500 -c 1 -i 21 -a 1 -x {1.0 5.0 16 ------- null}
- -t 1.092 -s 2 -d 3 -p cbr -e 500 -c 1 -i 11 -a 1 -x {1.0 5.0 6 ------- null}
h -t 1.092 -s 2 -d 3 -p cbr -e 500 -c 1 -i 11 -a 1 -x {1.0 5.0 -1 ------- null}
+ -t 1.095 -s 1 -d 2 -p cbr -e 500 -c 1 -i 24 -a 1 -x {1.0 5.0 19 ------- null}
- -t 1.095 -s 1 -d 2 -p cbr -e 500 -c 1 -i 24 -a 1 -x {1.0 5.0 19 ------- null}
h -t 1.095 -s 1 -d 2 -p cbr -e 500 -c 1 -i 24 -a 1 -x {1.0 5.0 -1 ------- null}
r -t 1.097 -s 1 -d 2 -p cbr -e 500 -c 1 -i 22 -a 1 -x {1.0 5.0 17 ------- null}
+ -t 1.097 -s 2 -d 3 -p cbr -e 500 -c 1 -i 22 -a 1 -x {1.0 5.0 17 ------- null}
+ -t 1.1 -s 1 -d 2 -p cbr -e 500 -c 1 -i 25 -a 1 -x {1.0 5.0 20 ------- null}
- -t 1.1 -s 1 -d 2 -p cbr -e 500 -c 1 -i 25 -a 1 -x {1.0 5.0 20 ------- null}
h -t 1.1 -s 1 -d 2 -p cbr -e 500 -c 1 -i 25 -a 1 -x {1.0 5.0 -1 ------- null}
r -t 1.102 -s 1 -d 2 -p cbr -e 500 -c 1 -i 23 -a 1 -x {1.0 5.0 18 ------- null}
+ -t 1.102 -s 2 -d 3 -p cbr -e 500 -c 1 -i 23 -a 1 -x {1.0 5.0 18 ------- null}
+ -t 1.105 -s 1 -d 2 -p cbr -e 500 -c 1 -i 26 -a 1 -x {1.0 5.0 21 ------- null}
- -t 1.105 -s 1 -d 2 -p cbr -e 500 -c 1 -i 26 -a 1 -x {1.0 5.0 21 ------- null}
h -t 1.105 -s 1 -d 2 -p cbr -e 500 -c 1 -i 26 -a 1 -x {1.0 5.0 -1 ------- null}
- -t 1.10533333333333 -s 2 -d 3 -p cbr -e 500 -c 1 -i 12 -a 1 -x {1.0 5.0 7 ------- null}
h -t 1.10533333333333 -s 2 -d 3 -p cbr -e 500 -c 1 -i 12 -a 1 -x {1.0 5.0 -1 ------- null}
r -t 1.107 -s 1 -d 2 -p cbr -e 500 -c 1 -i 24 -a 1 -x {1.0 5.0 19 ------- null}
+ -t 1.107 -s 2 -d 3 -p cbr -e 500 -c 1 -i 24 -a 1 -x {1.0 5.0 19 ------- null}
+ -t 1.11 -s 1 -d 2 -p cbr -e 500 -c 1 -i 27 -a 1 -x {1.0 5.0 22 ------- null}
- -t 1.11 -s 1 -d 2 -p cbr -e 500 -c 1 -i 27 -a 1 -x {1.0 5.0 22 ------- null}
h -t 1.11 -s 1 -d 2 -p cbr -e 500 -c 1 -i 27 -a 1 -x {1.0 5.0 -1 ------- null}
r -t 1.112 -s 1 -d 2 -p cbr -e 500 -c 1 -i 25 -a 1 -x {1.0 5.0 20 ------- null}
+ -t 1.112 -s 2 -d 3 -p cbr -e 500 -c 1 -i 25 -a 1 -x {1.0 5.0 20 ------- null}
+ -t 1.115 -s 1 -d 2 -p cbr -e 500 -c 1 -i 28 -a 1 -x {1.0 5.0 23 ------- null}
- -t 1.115 -s 1 -d 2 -p cbr -e 500 -c 1 -i 28 -a 1 -x {1.0 5.0 23 ------- null}
h -t 1.115 -s 1 -d 2 -p cbr -e 500 -c 1 -i 28 -a 1 -x {1.0 5.0 -1 ------- null}
r -t 1.117 -s 1 -d 2 -p cbr -e 500 -c 1 -i 26 -a 1 -x {1.0 5.0 21 ------- null}
+ -t 1.117 -s 2 -d 3 -p cbr -e 500 -c 1 -i 26 -a 1 -x {1.0 5.0 21 ------- null}
- -t 1.11866666666667 -s 2 -d 3 -p cbr -e 500 -c 1 -i 13 -a 1 -x {1.0 5.0 8 ------- null}
h -t 1.11866666666667 -s 2 -d 3 -p cbr -e 500 -c 1 -i 13 -a 1 -x {1.0 5.0 -1 ------- null}
+ -t 1.12 -s 1 -d 2 -p cbr -e 500 -c 1 -i 29 -a 1 -x {1.0 5.0 24 ------- null}
- -t 1.12 -s 1 -d 2 -p cbr -e 500 -c 1 -i 29 -a 1 -x {1.0 5.0 24 ------- null}
h -t 1.12 -s 1 -d 2 -p cbr -e 500 -c 1 -i 29 -a 1 -x {1.0 5.0 -1 ------- null}
r -t 1.122 -s 1 -d 2 -p cbr -e 500 -c 1 -i 27 -a 1 -x {1.0 5.0 22 ------- null}
+ -t 1.122 -s 2 -d 3 -p cbr -e 500 -c 1 -i 27 -a 1 -x {1.0 5.0 22 ------- null}
+ -t 1.125 -s 1 -d 2 -p cbr -e 500 -c 1 -i 30 -a 1 -x {1.0 5.0 25 ------- null}
- -t 1.125 -s 1 -d 2 -p cbr -e 500 -c 1 -i 30 -a 1 -x {1.0 5.0 25 ------- null}
h -t 1.125 -s 1 -d 2 -p cbr -e 500 -c 1 -i 30 -a 1 -x {1.0 5.0 -1 ------- null}
r -t 1.12533333333333 -s 2 -d 3 -p cbr -e 500 -c 1 -i 5 -a 1 -x {1.0 5.0 0 ------- null}
+ -t 1.12533333333333 -s 3 -d 5 -p cbr -e 500 -c 1 -i 5 -a 1 -x {1.0 5.0 0 ------- null}
- -t 1.12533333333333 -s 3 -d 5 -p cbr -e 500 -c 1 -i 5 -a 1 -x {1.0 5.0 0 ------- null}
h -t 1.12533333333333 -s 3 -d 5 -p cbr -e 500 -c 1 -i 5 -a 1 -x {1.0 5.0 -1 ------- null}
r -t 1.127 -s 1 -d 2 -p cbr -e 500 -c 1 -i 28 -a 1 -x {1.0 5.0 23 ------- null}
+ -t 1.127 -s 2 -d 3 -p cbr -e 500 -c 1 -i 28 -a 1 -x {1.0 5.0 23 ------- null}
+ -t 1.13 -s 1 -d 2 -p cbr -e 500 -c 1 -i 31 -a 1 -x {1.0 5.0 26 ------- null}
- -t 1.13 -s 1 -d 2 -p cbr -e 500 -c 1 -i 31 -a 1 -x {1.0 5.0 26 ------- null}
h -t 1.13 -s 1 -d 2 -p cbr -e 500 -c 1 -i 31 -a 1 -x {1.0 5.0 -1 ------- null}
r -t 1.132 -s 1 -d 2 -p cbr -e 500 -c 1 -i 29 -a 1 -x {1.0 5.0 24 ------- null}
+ -t 1.132 -s 2 -d 3 -p cbr -e 500 -c 1 -i 29 -a 1 -x {1.0 5.0 24 ------- null}
- -t 1.132 -s 2 -d 3 -p cbr -e 500 -c 1 -i 14 -a 1 -x {1.0 5.0 9 ------- null}
h -t 1.132 -s 2 -d 3 -p cbr -e 500 -c 1 -i 14 -a 1 -x {1.0 5.0 -1 ------- null}
+ -t 1.135 -s 1 -d 2 -p cbr -e 500 -c 1 -i 32 -a 1 -x {1.0 5.0 27 ------- null}
- -t 1.135 -s 1 -d 2 -p cbr -e 500 -c 1 -i 32 -a 1 -x {1.0 5.0 27 ------- null}
h -t 1.135 -s 1 -d 2 -p cbr -e 500 -c 1 -i 32 -a 1 -x {1.0 5.0 -1 ------- null}
r -t 1.137 -s 1 -d 2 -p cbr -e 500 -c 1 -i 30 -a 1 -x {1.0 5.0 25 ------- null}
+ -t 1.137 -s 2 -d 3 -p cbr -e 500 -c 1 -i 30 -a 1 -x {1.0 5.0 25 ------- null}
r -t 1.13866666666667 -s 2 -d 3 -p cbr -e 500 -c 1 -i 6 -a 1 -x {1.0 5.0 1 ------- null}
+ -t 1.13866666666667 -s 3 -d 5 -p cbr -e 500 -c 1 -i 6 -a 1 -x {1.0 5.0 1 ------- null}
- -t 1.13866666666667 -s 3 -d 5 -p cbr -e 500 -c 1 -i 6 -a 1 -x {1.0 5.0 1 ------- null}
h -t 1.13866666666667 -s 3 -d 5 -p cbr -e 500 -c 1 -i 6 -a 1 -x {1.0 5.0 -1 ------- null}
r -t 1.13885333333333 -s 3 -d 2 -p ack -e 40 -c 2 -i 4 -a 2 -x {4.0 0.0 2 ------- null}
+ -t 1.13885333333333 -s 2 -d 0 -p ack -e 40 -c 2 -i 4 -a 2 -x {4.0 0.0 2 ------- null}
- -t 1.13885333333333 -s 2 -d 0 -p ack -e 40 -c 2 -i 4 -a 2 -x {4.0 0.0 2 ------- null}
h -t 1.13885333333333 -s 2 -d 0 -p ack -e 40 -c 2 -i 4 -a 2 -x {4.0 0.0 -1 ------- null}
+ -t 1.14 -s 1 -d 2 -p cbr -e 500 -c 1 -i 33 -a 1 -x {1.0 5.0 28 ------- null}
- -t 1.14 -s 1 -d 2 -p cbr -e 500 -c 1 -i 33 -a 1 -x {1.0 5.0 28 ------- null}
h -t 1.14 -s 1 -d 2 -p cbr -e 500 -c 1 -i 33 -a 1 -x {1.0 5.0 -1 ------- null}
r -t 1.142 -s 1 -d 2 -p cbr -e 500 -c 1 -i 31 -a 1 -x {1.0 5.0 26 ------- null}
+ -t 1.142 -s 2 -d 3 -p cbr -e 500 -c 1 -i 31 -a 1 -x {1.0 5.0 26 ------- null}
+ -t 1.145 -s 1 -d 2 -p cbr -e 500 -c 1 -i 34 -a 1 -x {1.0 5.0 29 ------- null}
- -t 1.145 -s 1 -d 2 -p cbr -e 500 -c 1 -i 34 -a 1 -x {1.0 5.0 29 ------- null}
h -t 1.145 -s 1 -d 2 -p cbr -e 500 -c 1 -i 34 -a 1 -x {1.0 5.0 -1 ------- null}
- -t 1.14533333333333 -s 2 -d 3 -p cbr -e 500 -c 1 -i 15 -a 1 -x {1.0 5.0 10 ------- null}
h -t 1.14533333333333 -s 2 -d 3 -p cbr -e 500 -c 1 -i 15 -a 1 -x {1.0 5.0 -1 ------- null}
r -t 1.147 -s 1 -d 2 -p cbr -e 500 -c 1 -i 32 -a 1 -x {1.0 5.0 27 ------- null}
+ -t 1.147 -s 2 -d 3 -p cbr -e 500 -c 1 -i 32 -a 1 -x {1.0 5.0 27 ------- null}
r -t 1.14901333333333 -s 2 -d 0 -p ack -e 40 -c 2 -i 4 -a 2 -x {4.0 0.0 2 ------- null}
+ -t 1.14901333333333 -s 0 -d 2 -p tcp -e 592 -c 2 -i 35 -a 2 -x {0.0 4.0 3 ------- null}
- -t 1.14901333333333 -s 0 -d 2 -p tcp -e 592 -c 2 -i 35 -a 2 -x {0.0 4.0 3 ------- null}
h -t 1.14901333333333 -s 0 -d 2 -p tcp -e 592 -c 2 -i 35 -a 2 -x {0.0 4.0 -1 ------- null}
+ -t 1.14901333333333 -s 0 -d 2 -p tcp -e 592 -c 2 -i 36 -a 2 -x {0.0 4.0 4 ------- null}
+ -t 1.14901333333333 -s 0 -d 2 -p tcp -e 592 -c 2 -i 37 -a 2 -x {0.0 4.0 5 ------- null}
+ -t 1.15 -s 1 -d 2 -p cbr -e 500 -c 1 -i 38 -a 1 -x {1.0 5.0 30 ------- null}
- -t 1.15 -s 1 -d 2 -p cbr -e 500 -c 1 -i 38 -a 1 -x {1.0 5.0 30 ------- null}
h -t 1.15 -s 1 -d 2 -p cbr -e 500 -c 1 -i 38 -a 1 -x {1.0 5.0 -1 ------- null}
- -t 1.15138133333333 -s 0 -d 2 -p tcp -e 592 -c 2 -i 36 -a 2 -x {0.0 4.0 4 ------- null}
h -t 1.15138133333333 -s 0 -d 2 -p tcp -e 592 -c 2 -i 36 -a 2 -x {0.0 4.0 -1 ------- null}
r -t 1.152 -s 1 -d 2 -p cbr -e 500 -c 1 -i 33 -a 1 -x {1.0 5.0 28 ------- null}
+ -t 1.152 -s 2 -d 3 -p cbr -e 500 -c 1 -i 33 -a 1 -x {1.0 5.0 28 ------- null}
r -t 1.152 -s 2 -d 3 -p cbr -e 500 -c 1 -i 7 -a 1 -x {1.0 5.0 2 ------- null}
+ -t 1.152 -s 3 -d 5 -p cbr -e 500 -c 1 -i 7 -a 1 -x {1.0 5.0 2 ------- null}
- -t 1.152 -s 3 -d 5 -p cbr -e 500 -c 1 -i 7 -a 1 -x {1.0 5.0 2 ------- null}
h -t 1.152 -s 3 -d 5 -p cbr -e 500 -c 1 -i 7 -a 1 -x {1.0 5.0 -1 ------- null}
- -t 1.15374933333333 -s 0 -d 2 -p tcp -e 592 -c 2 -i 37 -a 2 -x {0.0 4.0 5 ------- null}
h -t 1.15374933333333 -s 0 -d 2 -p tcp -e 592 -c 2 -i 37 -a 2 -x {0.0 4.0 -1 ------- null}
+ -t 1.155 -s 1 -d 2 -p cbr -e 500 -c 1 -i 39 -a 1 -x {1.0 5.0 31 ------- null}
- -t 1.155 -s 1 -d 2 -p cbr -e 500 -c 1 -i 39 -a 1 -x {1.0 5.0 31 ------- null}
h -t 1.155 -s 1 -d 2 -p cbr -e 500 -c 1 -i 39 -a 1 -x {1.0 5.0 -1 ------- null}
r -t 1.157 -s 1 -d 2 -p cbr -e 500 -c 1 -i 34 -a 1 -x {1.0 5.0 29 ------- null}
+ -t 1.157 -s 2 -d 3 -p cbr -e 500 -c 1 -i 34 -a 1 -x {1.0 5.0 29 ------- null}
- -t 1.15866666666667 -s 2 -d 3 -p cbr -e 500 -c 1 -i 16 -a 1 -x {1.0 5.0 11 ------- null}
h -t 1.15866666666667 -s 2 -d 3 -p cbr -e 500 -c 1 -i 16 -a 1 -x {1.0 5.0 -1 ------- null}
+ -t 1.16 -s 1 -d 2 -p cbr -e 500 -c 1 -i 40 -a 1 -x {1.0 5.0 32 ------- null}
- -t 1.16 -s 1 -d 2 -p cbr -e 500 -c 1 -i 40 -a 1 -x {1.0 5.0 32 ------- null}
h -t 1.16 -s 1 -d 2 -p cbr -e 500 -c 1 -i 40 -a 1 -x {1.0 5.0 -1 ------- null}
r -t 1.16138133333333 -s 0 -d 2 -p tcp -e 592 -c 2 -i 35 -a 2 -x {0.0 4.0 3 ------- null}
+ -t 1.16138133333333 -s 2 -d 3 -p tcp -e 592 -c 2 -i 35 -a 2 -x {0.0 4.0 3 ------- null}
r -t 1.162 -s 1 -d 2 -p cbr -e 500 -c 1 -i 38 -a 1 -x {1.0 5.0 30 ------- null}
+ -t 1.162 -s 2 -d 3 -p cbr -e 500 -c 1 -i 38 -a 1 -x {1.0 5.0 30 ------- null}
r -t 1.16333333333333 -s 3 -d 5 -p cbr -e 500 -c 1 -i 5 -a 1 -x {1.0 5.0 0 ------- null}
r -t 1.16374933333333 -s 0 -d 2 -p tcp -e 592 -c 2 -i 36 -a 2 -x {0.0 4.0 4 ------- null}
+ -t 1.16374933333333 -s 2 -d 3 -p tcp -e 592 -c 2 -i 36 -a 2 -x {0.0 4.0 4 ------- null}
+ -t 1.165 -s 1 -d 2 -p cbr -e 500 -c 1 -i 41 -a 1 -x {1.0 5.0 33 ------- null}
- -t 1.165 -s 1 -d 2 -p cbr -e 500 -c 1 -i 41 -a 1 -x {1.0 5.0 33 ------- null}
h -t 1.165 -s 1 -d 2 -p cbr -e 500 -c 1 -i 41 -a 1 -x {1.0 5.0 -1 ------- null}
r -t 1.16533333333333 -s 2 -d 3 -p cbr -e 500 -c 1 -i 8 -a 1 -x {1.0 5.0 3 ------- null}
+ -t 1.16533333333333 -s 3 -d 5 -p cbr -e 500 -c 1 -i 8 -a 1 -x {1.0 5.0 3 ------- null}
- -t 1.16533333333333 -s 3 -d 5 -p cbr -e 500 -c 1 -i 8 -a 1 -x {1.0 5.0 3 ------- null}
h -t 1.16533333333333 -s 3 -d 5 -p cbr -e 500 -c 1 -i 8 -a 1 -x {1.0 5.0 -1 ------- null}
r -t 1.16611733333333 -s 0 -d 2 -p tcp -e 592 -c 2 -i 37 -a 2 -x {0.0 4.0 5 ------- null}
+ -t 1.16611733333333 -s 2 -d 3 -p tcp -e 592 -c 2 -i 37 -a 2 -x {0.0 4.0 5 ------- null}
r -t 1.167 -s 1 -d 2 -p cbr -e 500 -c 1 -i 39 -a 1 -x {1.0 5.0 31 ------- null}
+ -t 1.167 -s 2 -d 3 -p cbr -e 500 -c 1 -i 39 -a 1 -x {1.0 5.0 31 ------- null}
+ -t 1.17 -s 1 -d 2 -p cbr -e 500 -c 1 -i 42 -a 1 -x {1.0 5.0 34 ------- null}
- -t 1.17 -s 1 -d 2 -p cbr -e 500 -c 1 -i 42 -a 1 -x {1.0 5.0 34 ------- null}
h -t 1.17 -s 1 -d 2 -p cbr -e 500 -c 1 -i 42 -a 1 -x {1.0 5.0 -1 ------- null}
r -t 1.172 -s 1 -d 2 -p cbr -e 500 -c 1 -i 40 -a 1 -x {1.0 5.0 32 ------- null}
+ -t 1.172 -s 2 -d 3 -p cbr -e 500 -c 1 -i 40 -a 1 -x {1.0 5.0 32 ------- null}
- -t 1.172 -s 2 -d 3 -p cbr -e 500 -c 1 -i 17 -a 1 -x {1.0 5.0 12 ------- null}
h -t 1.172 -s 2 -d 3 -p cbr -e 500 -c 1 -i 17 -a 1 -x {1.0 5.0 -1 ------- null}
+ -t 1.175 -s 1 -d 2 -p cbr -e 500 -c 1 -i 43 -a 1 -x {1.0 5.0 35 ------- null}
- -t 1.175 -s 1 -d 2 -p cbr -e 500 -c 1 -i 43 -a 1 -x {1.0 5.0 35 ------- null}
h -t 1.175 -s 1 -d 2 -p cbr -e 500 -c 1 -i 43 -a 1 -x {1.0 5.0 -1 ------- null}
r -t 1.17666666666667 -s 3 -d 5 -p cbr -e 500 -c 1 -i 6 -a 1 -x {1.0 5.0 1 ------- null}
r -t 1.177 -s 1 -d 2 -p cbr -e 500 -c 1 -i 41 -a 1 -x {1.0 5.0 33 ------- null}
+ -t 1.177 -s 2 -d 3 -p cbr -e 500 -c 1 -i 41 -a 1 -x {1.0 5.0 33 ------- null}
r -t 1.17866666666667 -s 2 -d 3 -p cbr -e 500 -c 1 -i 9 -a 1 -x {1.0 5.0 4 ------- null}
+ -t 1.17866666666667 -s 3 -d 5 -p cbr -e 500 -c 1 -i 9 -a 1 -x {1.0 5.0 4 ------- null}
- -t 1.17866666666667 -s 3 -d 5 -p cbr -e 500 -c 1 -i 9 -a 1 -x {1.0 5.0 4 ------- null}
h -t 1.17866666666667 -s 3 -d 5 -p cbr -e 500 -c 1 -i 9 -a 1 -x {1.0 5.0 -1 ------- null}
+ -t 1.18 -s 1 -d 2 -p cbr -e 500 -c 1 -i 44 -a 1 -x {1.0 5.0 36 ------- null}
- -t 1.18 -s 1 -d 2 -p cbr -e 500 -c 1 -i 44 -a 1 -x {1.0 5.0 36 ------- null}
h -t 1.18 -s 1 -d 2 -p cbr -e 500 -c 1 -i 44 -a 1 -x {1.0 5.0 -1 ------- null}
r -t 1.182 -s 1 -d 2 -p cbr -e 500 -c 1 -i 42 -a 1 -x {1.0 5.0 34 ------- null}
+ -t 1.182 -s 2 -d 3 -p cbr -e 500 -c 1 -i 42 -a 1 -x {1.0 5.0 34 ------- null}
+ -t 1.185 -s 1 -d 2 -p cbr -e 500 -c 1 -i 45 -a 1 -x {1.0 5.0 37 ------- null}
- -t 1.185 -s 1 -d 2 -p cbr -e 500 -c 1 -i 45 -a 1 -x {1.0 5.0 37 ------- null}
h -t 1.185 -s 1 -d 2 -p cbr -e 500 -c 1 -i 45 -a 1 -x {1.0 5.0 -1 ------- null}
- -t 1.18533333333333 -s 2 -d 3 -p cbr -e 500 -c 1 -i 18 -a 1 -x {1.0 5.0 13 ------- null}
h -t 1.18533333333333 -s 2 -d 3 -p cbr -e 500 -c 1 -i 18 -a 1 -x {1.0 5.0 -1 ------- null}
r -t 1.187 -s 1 -d 2 -p cbr -e 500 -c 1 -i 43 -a 1 -x {1.0 5.0 35 ------- null}
+ -t 1.187 -s 2 -d 3 -p cbr -e 500 -c 1 -i 43 -a 1 -x {1.0 5.0 35 ------- null}
+ -t 1.19 -s 1 -d 2 -p cbr -e 500 -c 1 -i 46 -a 1 -x {1.0 5.0 38 ------- null}
- -t 1.19 -s 1 -d 2 -p cbr -e 500 -c 1 -i 46 -a 1 -x {1.0 5.0 38 ------- null}
h -t 1.19 -s 1 -d 2 -p cbr -e 500 -c 1 -i 46 -a 1 -x {1.0 5.0 -1 ------- null}
r -t 1.19 -s 3 -d 5 -p cbr -e 500 -c 1 -i 7 -a 1 -x {1.0 5.0 2 ------- null}
r -t 1.192 -s 1 -d 2 -p cbr -e 500 -c 1 -i 44 -a 1 -x {1.0 5.0 36 ------- null}
+ -t 1.192 -s 2 -d 3 -p cbr -e 500 -c 1 -i 44 -a 1 -x {1.0 5.0 36 ------- null}
r -t 1.192 -s 2 -d 3 -p cbr -e 500 -c 1 -i 10 -a 1 -x {1.0 5.0 5 ------- null}
+ -t 1.192 -s 3 -d 5 -p cbr -e 500 -c 1 -i 10 -a 1 -x {1.0 5.0 5 ------- null}
- -t 1.192 -s 3 -d 5 -p cbr -e 500 -c 1 -i 10 -a 1 -x {1.0 5.0 5 ------- null}
h -t 1.192 -s 3 -d 5 -p cbr -e 500 -c 1 -i 10 -a 1 -x {1.0 5.0 -1 ------- null}
+ -t 1.195 -s 1 -d 2 -p cbr -e 500 -c 1 -i 47 -a 1 -x {1.0 5.0 39 ------- null}
- -t 1.195 -s 1 -d 2 -p cbr -e 500 -c 1 -i 47 -a 1 -x {1.0 5.0 39 ------- null}
h -t 1.195 -s 1 -d 2 -p cbr -e 500 -c 1 -i 47 -a 1 -x {1.0 5.0 -1 ------- null}
r -t 1.197 -s 1 -d 2 -p cbr -e 500 -c 1 -i 45 -a 1 -x {1.0 5.0 37 ------- null}
+ -t 1.197 -s 2 -d 3 -p cbr -e 500 -c 1 -i 45 -a 1 -x {1.0 5.0 37 ------- null}
- -t 1.19866666666667 -s 2 -d 3 -p cbr -e 500 -c 1 -i 19 -a 1 -x {1.0 5.0 14 ------- null}
h -t 1.19866666666667 -s 2 -d 3 -p cbr -e 500 -c 1 -i 19 -a 1 -x {1.0 5.0 -1 ------- null}
+ -t 1.2 -s 1 -d 2 -p cbr -e 500 -c 1 -i 48 -a 1 -x {1.0 5.0 40 ------- null}
- -t 1.2 -s 1 -d 2 -p cbr -e 500 -c 1 -i 48 -a 1 -x {1.0 5.0 40 ------- null}
h -t 1.2 -s 1 -d 2 -p cbr -e 500 -c 1 -i 48 -a 1 -x {1.0 5.0 -1 ------- null}
r -t 1.202 -s 1 -d 2 -p cbr -e 500 -c 1 -i 46 -a 1 -x {1.0 5.0 38 ------- null}
+ -t 1.202 -s 2 -d 3 -p cbr -e 500 -c 1 -i 46 -a 1 -x {1.0 5.0 38 ------- null}
r -t 1.20333333333333 -s 3 -d 5 -p cbr -e 500 -c 1 -i 8 -a 1 -x {1.0 5.0 3 ------- null}
+ -t 1.205 -s 1 -d 2 -p cbr -e 500 -c 1 -i 49 -a 1 -x {1.0 5.0 41 ------- null}
- -t 1.205 -s 1 -d 2 -p cbr -e 500 -c 1 -i 49 -a 1 -x {1.0 5.0 41 ------- null}
h -t 1.205 -s 1 -d 2 -p cbr -e 500 -c 1 -i 49 -a 1 -x {1.0 5.0 -1 ------- null}
r -t 1.20533333333333 -s 2 -d 3 -p cbr -e 500 -c 1 -i 11 -a 1 -x {1.0 5.0 6 ------- null}
+ -t 1.20533333333333 -s 3 -d 5 -p cbr -e 500 -c 1 -i 11 -a 1 -x {1.0 5.0 6 ------- null}
- -t 1.20533333333333 -s 3 -d 5 -p cbr -e 500 -c 1 -i 11 -a 1 -x {1.0 5.0 6 ------- null}
h -t 1.20533333333333 -s 3 -d 5 -p cbr -e 500 -c 1 -i 11 -a 1 -x {1.0 5.0 -1 ------- null}
r -t 1.207 -s 1 -d 2 -p cbr -e 500 -c 1 -i 47 -a 1 -x {1.0 5.0 39 ------- null}
+ -t 1.207 -s 2 -d 3 -p cbr -e 500 -c 1 -i 47 -a 1 -x {1.0 5.0 39 ------- null}
+ -t 1.21 -s 1 -d 2 -p cbr -e 500 -c 1 -i 50 -a 1 -x {1.0 5.0 42 ------- null}
- -t 1.21 -s 1 -d 2 -p cbr -e 500 -c 1 -i 50 -a 1 -x {1.0 5.0 42 ------- null}
h -t 1.21 -s 1 -d 2 -p cbr -e 500 -c 1 -i 50 -a 1 -x {1.0 5.0 -1 ------- null}
r -t 1.212 -s 1 -d 2 -p cbr -e 500 -c 1 -i 48 -a 1 -x {1.0 5.0 40 ------- null}
+ -t 1.212 -s 2 -d 3 -p cbr -e 500 -c 1 -i 48 -a 1 -x {1.0 5.0 40 ------- null}
- -t 1.212 -s 2 -d 3 -p cbr -e 500 -c 1 -i 20 -a 1 -x {1.0 5.0 15 ------- null}
h -t 1.212 -s 2 -d 3 -p cbr -e 500 -c 1 -i 20 -a 1 -x {1.0 5.0 -1 ------- null}
+ -t 1.215 -s 1 -d 2 -p cbr -e 500 -c 1 -i 51 -a 1 -x {1.0 5.0 43 ------- null}
- -t 1.215 -s 1 -d 2 -p cbr -e 500 -c 1 -i 51 -a 1 -x {1.0 5.0 43 ------- null}
h -t 1.215 -s 1 -d 2 -p cbr -e 500 -c 1 -i 51 -a 1 -x {1.0 5.0 -1 ------- null}
r -t 1.21666666666667 -s 3 -d 5 -p cbr -e 500 -c 1 -i 9 -a 1 -x {1.0 5.0 4 ------- null}