+ 0.5 0 2 tcp 40 ------- 2 0.0 4.0 0 0
- 0.5 0 2 tcp 40 ------- 2 0.0 4.0 0 0
r 0.51016 0 2 tcp 40 ------- 2 0.0 4.0 0 0
+ 0.51016 2 3 tcp 40 ------- 2 0.0 4.0 0 0
- 0.51016 2 3 tcp 40 ------- 2 0.0 4.0 0 0
r 0.611227 2 3 tcp 40 ------- 2 0.0 4.0 0 0
+ 0.611227 3 4 tcp 40 ------- 2 0.0 4.0 0 0
- 0.611227 3 4 tcp 40 ------- 2 0.0 4.0 0 0
r 0.651867 3 4 tcp 40 ------- 2 0.0 4.0 0 0
+ 0.651867 4 3 ack 40 ------- 2 4.0 0.0 0 1
- 0.651867 4 3 ack 40 ------- 2 4.0 0.0 0 1
r 0.692507 4 3 ack 40 ------- 2 4.0 0.0 0 1
+ 0.692507 3 2 ack 40 ------- 2 4.0 0.0 0 1
- 0.692507 3 2 ack 40 ------- 2 4.0 0.0 0 1
r 0.793573 3 2 ack 40 ------- 2 4.0 0.0 0 1
+ 0.793573 2 0 ack 40 ------- 2 4.0 0.0 0 1
- 0.793573 2 0 ack 40 ------- 2 4.0 0.0 0 1
r 0.803733 2 0 ack 40 ------- 2 4.0 0.0 0 1
+ 0.803733 0 2 tcp 592 ------- 2 0.0 4.0 1 2
- 0.803733 0 2 tcp 592 ------- 2 0.0 4.0 1 2
+ 0.803733 0 2 tcp 592 ------- 2 0.0 4.0 2 3
- 0.806101 0 2 tcp 592 ------- 2 0.0 4.0 2 3
r 0.816101 0 2 tcp 592 ------- 2 0.0 4.0 1 2
+ 0.816101 2 3 tcp 592 ------- 2 0.0 4.0 1 2
- 0.816101 2 3 tcp 592 ------- 2 0.0 4.0 1 2
r 0.818469 0 2 tcp 592 ------- 2 0.0 4.0 2 3
+ 0.818469 2 3 tcp 592 ------- 2 0.0 4.0 2 3
- 0.831888 2 3 tcp 592 ------- 2 0.0 4.0 2 3
r 0.931888 2 3 tcp 592 ------- 2 0.0 4.0 1 2
+ 0.931888 3 4 tcp 592 ------- 2 0.0 4.0 1 2
- 0.931888 3 4 tcp 592 ------- 2 0.0 4.0 1 2
r 0.947675 2 3 tcp 592 ------- 2 0.0 4.0 2 3
+ 0.947675 3 4 tcp 592 ------- 2 0.0 4.0 2 3
- 0.947675 3 4 tcp 592 ------- 2 0.0 4.0 2 3
r 0.98136 3 4 tcp 592 ------- 2 0.0 4.0 1 2
r 0.997147 3 4 tcp 592 ------- 2 0.0 4.0 2 3
+ 0.997147 4 3 ack 40 ------- 2 4.0 0.0 2 4
- 0.997147 4 3 ack 40 ------- 2 4.0 0.0 2 4
+ 1 1 2 cbr 500 ------- 1 1.0 5.0 0 5
- 1 1 2 cbr 500 ------- 1 1.0 5.0 0 5
+ 1.005 1 2 cbr 500 ------- 1 1.0 5.0 1 6
- 1.005 1 2 cbr 500 ------- 1 1.0 5.0 1 6
+ 1.01 1 2 cbr 500 ------- 1 1.0 5.0 2 7
- 1.01 1 2 cbr 500 ------- 1 1.0 5.0 2 7
r 1.012 1 2 cbr 500 ------- 1 1.0 5.0 0 5
+ 1.012 2 3 cbr 500 ------- 1 1.0 5.0 0 5
- 1.012 2 3 cbr 500 ------- 1 1.0 5.0 0 5
+ 1.015 1 2 cbr 500 ------- 1 1.0 5.0 3 8
- 1.015 1 2 cbr 500 ------- 1 1.0 5.0 3 8
r 1.017 1 2 cbr 500 ------- 1 1.0 5.0 1 6
+ 1.017 2 3 cbr 500 ------- 1 1.0 5.0 1 6
+ 1.02 1 2 cbr 500 ------- 1 1.0 5.0 4 9
- 1.02 1 2 cbr 500 ------- 1 1.0 5.0 4 9
r 1.022 1 2 cbr 500 ------- 1 1.0 5.0 2 7
+ 1.022 2 3 cbr 500 ------- 1 1.0 5.0 2 7
+ 1.025 1 2 cbr 500 ------- 1 1.0 5.0 5 10
- 1.025 1 2 cbr 500 ------- 1 1.0 5.0 5 10
- 1.025333 2 3 cbr 500 ------- 1 1.0 5.0 1 6
r 1.027 1 2 cbr 500 ------- 1 1.0 5.0 3 8
+ 1.027 2 3 cbr 500 ------- 1 1.0 5.0 3 8
+ 1.03 1 2 cbr 500 ------- 1 1.0 5.0 6 11
- 1.03 1 2 cbr 500 ------- 1 1.0 5.0 6 11
r 1.032 1 2 cbr 500 ------- 1 1.0 5.0 4 9
+ 1.032 2 3 cbr 500 ------- 1 1.0 5.0 4 9
+ 1.035 1 2 cbr 500 ------- 1 1.0 5.0 7 12
- 1.035 1 2 cbr 500 ------- 1 1.0 5.0 7 12
r 1.037 1 2 cbr 500 ------- 1 1.0 5.0 5 10
+ 1.037 2 3 cbr 500 ------- 1 1.0 5.0 5 10
r 1.037787 4 3 ack 40 ------- 2 4.0 0.0 2 4
+ 1.037787 3 2 ack 40 ------- 2 4.0 0.0 2 4
- 1.037787 3 2 ack 40 ------- 2 4.0 0.0 2 4
- 1.038667 2 3 cbr 500 ------- 1 1.0 5.0 2 7
+ 1.04 1 2 cbr 500 ------- 1 1.0 5.0 8 13
- 1.04 1 2 cbr 500 ------- 1 1.0 5.0 8 13
r 1.042 1 2 cbr 500 ------- 1 1.0 5.0 6 11
+ 1.042 2 3 cbr 500 ------- 1 1.0 5.0 6 11
+ 1.045 1 2 cbr 500 ------- 1 1.0 5.0 9 14
- 1.045 1 2 cbr 500 ------- 1 1.0 5.0 9 14
r 1.047 1 2 cbr 500 ------- 1 1.0 5.0 7 12
+ 1.047 2 3 cbr 500 ------- 1 1.0 5.0 7 12
+ 1.05 1 2 cbr 500 ------- 1 1.0 5.0 10 15
- 1.05 1 2 cbr 500 ------- 1 1.0 5.0 10 15
r 1.052 1 2 cbr 500 ------- 1 1.0 5.0 8 13
+ 1.052 2 3 cbr 500 ------- 1 1.0 5.0 8 13
- 1.052 2 3 cbr 500 ------- 1 1.0 5.0 3 8
+ 1.055 1 2 cbr 500 ------- 1 1.0 5.0 11 16
- 1.055 1 2 cbr 500 ------- 1 1.0 5.0 11 16
r 1.057 1 2 cbr 500 ------- 1 1.0 5.0 9 14
+ 1.057 2 3 cbr 500 ------- 1 1.0 5.0 9 14
+ 1.06 1 2 cbr 500 ------- 1 1.0 5.0 12 17
- 1.06 1 2 cbr 500 ------- 1 1.0 5.0 12 17
r 1.062 1 2 cbr 500 ------- 1 1.0 5.0 10 15
+ 1.062 2 3 cbr 500 ------- 1 1.0 5.0 10 15
+ 1.065 1 2 cbr 500 ------- 1 1.0 5.0 13 18
- 1.065 1 2 cbr 500 ------- 1 1.0 5.0 13 18
- 1.065333 2 3 cbr 500 ------- 1 1.0 5.0 4 9
r 1.067 1 2 cbr 500 ------- 1 1.0 5.0 11 16
+ 1.067 2 3 cbr 500 ------- 1 1.0 5.0 11 16
+ 1.07 1 2 cbr 500 ------- 1 1.0 5.0 14 19
- 1.07 1 2 cbr 500 ------- 1 1.0 5.0 14 19
r 1.072 1 2 cbr 500 ------- 1 1.0 5.0 12 17
+ 1.072 2 3 cbr 500 ------- 1 1.0 5.0 12 17
+ 1.075 1 2 cbr 500 ------- 1 1.0 5.0 15 20
- 1.075 1 2 cbr 500 ------- 1 1.0 5.0 15 20
r 1.077 1 2 cbr 500 ------- 1 1.0 5.0 13 18
+ 1.077 2 3 cbr 500 ------- 1 1.0 5.0 13 18
- 1.078667 2 3 cbr 500 ------- 1 1.0 5.0 5 10
+ 1.08 1 2 cbr 500 ------- 1 1.0 5.0 16 21
- 1.08 1 2 cbr 500 ------- 1 1.0 5.0 16 21
r 1.082 1 2 cbr 500 ------- 1 1.0 5.0 14 19
+ 1.082 2 3 cbr 500 ------- 1 1.0 5.0 14 19
+ 1.085 1 2 cbr 500 ------- 1 1.0 5.0 17 22
- 1.085 1 2 cbr 500 ------- 1 1.0 5.0 17 22
r 1.087 1 2 cbr 500 ------- 1 1.0 5.0 15 20
+ 1.087 2 3 cbr 500 ------- 1 1.0 5.0 15 20
+ 1.09 1 2 cbr 500 ------- 1 1.0 5.0 18 23
- 1.09 1 2 cbr 500 ------- 1 1.0 5.0 18 23
r 1.092 1 2 cbr 500 ------- 1 1.0 5.0 16 21
+ 1.092 2 3 cbr 500 ------- 1 1.0 5.0 16 21
- 1.092 2 3 cbr 500 ------- 1 1.0 5.0 6 11
+ 1.095 1 2 cbr 500 ------- 1 1.0 5.0 19 24
- 1.095 1 2 cbr 500 ------- 1 1.0 5.0 19 24
r 1.097 1 2 cbr 500 ------- 1 1.0 5.0 17 22
+ 1.097 2 3 cbr 500 ------- 1 1.0 5.0 17 22
+ 1.1 1 2 cbr 500 ------- 1 1.0 5.0 20 25
- 1.1 1 2 cbr 500 ------- 1 1.0 5.0 20 25
r 1.102 1 2 cbr 500 ------- 1 1.0 5.0 18 23
+ 1.102 2 3 cbr 500 ------- 1 1.0 5.0 18 23
+ 1.105 1 2 cbr 500 ------- 1 1.0 5.0 21 26
- 1.105 1 2 cbr 500 ------- 1 1.0 5.0 21 26
- 1.105333 2 3 cbr 500 ------- 1 1.0 5.0 7 12
r 1.107 1 2 cbr 500 ------- 1 1.0 5.0 19 24
+ 1.107 2 3 cbr 500 ------- 1 1.0 5.0 19 24
+ 1.11 1 2 cbr 500 ------- 1 1.0 5.0 22 27
- 1.11 1 2 cbr 500 ------- 1 1.0 5.0 22 27
r 1.112 1 2 cbr 500 ------- 1 1.0 5.0 20 25
+ 1.112 2 3 cbr 500 ------- 1 1.0 5.0 20 25
+ 1.115 1 2 cbr 500 ------- 1 1.0 5.0 23 28
- 1.115 1 2 cbr 500 ------- 1 1.0 5.0 23 28
r 1.117 1 2 cbr 500 ------- 1 1.0 5.0 21 26
+ 1.117 2 3 cbr 500 ------- 1 1.0 5.0 21 26
- 1.118667 2 3 cbr 500 ------- 1 1.0 5.0 8 13
+ 1.12 1 2 cbr 500 ------- 1 1.0 5.0 24 29
- 1.12 1 2 cbr 500 ------- 1 1.0 5.0 24 29
r 1.122 1 2 cbr 500 ------- 1 1.0 5.0 22 27
+ 1.122 2 3 cbr 500 ------- 1 1.0 5.0 22 27
+ 1.125 1 2 cbr 500 ------- 1 1.0 5.0 25 30
- 1.125 1 2 cbr 500 ------- 1 1.0 5.0 25 30
r 1.125333 2 3 cbr 500 ------- 1 1.0 5.0 0 5
+ 1.125333 3 5 cbr 500 ------- 1 1.0 5.0 0 5
- 1.125333 3 5 cbr 500 ------- 1 1.0 5.0 0 5
r 1.127 1 2 cbr 500 ------- 1 1.0 5.0 23 28
+ 1.127 2 3 cbr 500 ------- 1 1.0 5.0 23 28
+ 1.13 1 2 cbr 500 ------- 1 1.0 5.0 26 31
- 1.13 1 2 cbr 500 ------- 1 1.0 5.0 26 31
r 1.132 1 2 cbr 500 ------- 1 1.0 5.0 24 29
+ 1.132 2 3 cbr 500 ------- 1 1.0 5.0 24 29
- 1.132 2 3 cbr 500 ------- 1 1.0 5.0 9 14
+ 1.135 1 2 cbr 500 ------- 1 1.0 5.0 27 32
- 1.135 1 2 cbr 500 ------- 1 1.0 5.0 27 32
r 1.137 1 2 cbr 500 ------- 1 1.0 5.0 25 30
+ 1.137 2 3 cbr 500 ------- 1 1.0 5.0 25 30
r 1.138667 2 3 cbr 500 ------- 1 1.0 5.0 1 6
+ 1.138667 3 5 cbr 500 ------- 1 1.0 5.0 1 6
- 1.138667 3 5 cbr 500 ------- 1 1.0 5.0 1 6
r 1.138853 3 2 ack 40 ------- 2 4.0 0.0 2 4
+ 1.138853 2 0 ack 40 ------- 2 4.0 0.0 2 4
- 1.138853 2 0 ack 40 ------- 2 4.0 0.0 2 4
+ 1.14 1 2 cbr 500 ------- 1 1.0 5.0 28 33
- 1.14 1 2 cbr 500 ------- 1 1.0 5.0 28 33
r 1.142 1 2 cbr 500 ------- 1 1.0 5.0 26 31
+ 1.142 2 3 cbr 500 ------- 1 1.0 5.0 26 31
+ 1.145 1 2 cbr 500 ------- 1 1.0 5.0 29 34
- 1.145 1 2 cbr 500 ------- 1 1.0 5.0 29 34
- 1.145333 2 3 cbr 500 ------- 1 1.0 5.0 10 15
r 1.147 1 2 cbr 500 ------- 1 1.0 5.0 27 32
+ 1.147 2 3 cbr 500 ------- 1 1.0 5.0 27 32
r 1.149013 2 0 ack 40 ------- 2 4.0 0.0 2 4
+ 1.149013 0 2 tcp 592 ------- 2 0.0 4.0 3 35
- 1.149013 0 2 tcp 592 ------- 2 0.0 4.0 3 35
+ 1.149013 0 2 tcp 592 ------- 2 0.0 4.0 4 36
+ 1.149013 0 2 tcp 592 ------- 2 0.0 4.0 5 37
+ 1.15 1 2 cbr 500 ------- 1 1.0 5.0 30 38
- 1.15 1 2 cbr 500 ------- 1 1.0 5.0 30 38
- 1.151381 0 2 tcp 592 ------- 2 0.0 4.0 4 36
r 1.152 1 2 cbr 500 ------- 1 1.0 5.0 28 33
+ 1.152 2 3 cbr 500 ------- 1 1.0 5.0 28 33
r 1.152 2 3 cbr 500 ------- 1 1.0 5.0 2 7
+ 1.152 3 5 cbr 500 ------- 1 1.0 5.0 2 7
- 1.152 3 5 cbr 500 ------- 1 1.0 5.0 2 7
- 1.153749 0 2 tcp 592 ------- 2 0.0 4.0 5 37
+ 1.155 1 2 cbr 500 ------- 1 1.0 5.0 31 39
- 1.155 1 2 cbr 500 ------- 1 1.0 5.0 31 39
r 1.157 1 2 cbr 500 ------- 1 1.0 5.0 29 34
+ 1.157 2 3 cbr 500 ------- 1 1.0 5.0 29 34
- 1.158667 2 3 cbr 500 ------- 1 1.0 5.0 11 16
+ 1.16 1 2 cbr 500 ------- 1 1.0 5.0 32 40
- 1.16 1 2 cbr 500 ------- 1 1.0 5.0 32 40
r 1.161381 0 2 tcp 592 ------- 2 0.0 4.0 3 35
+ 1.161381 2 3 tcp 592 ------- 2 0.0 4.0 3 35
r 1.162 1 2 cbr 500 ------- 1 1.0 5.0 30 38
+ 1.162 2 3 cbr 500 ------- 1 1.0 5.0 30 38
r 1.163333 3 5 cbr 500 ------- 1 1.0 5.0 0 5
r 1.163749 0 2 tcp 592 ------- 2 0.0 4.0 4 36
+ 1.163749 2 3 tcp 592 ------- 2 0.0 4.0 4 36
+ 1.165 1 2 cbr 500 ------- 1 1.0 5.0 33 41
- 1.165 1 2 cbr 500 ------- 1 1.0 5.0 33 41
r 1.165333 2 3 cbr 500 ------- 1 1.0 5.0 3 8
+ 1.165333 3 5 cbr 500 ------- 1 1.0 5.0 3 8
- 1.165333 3 5 cbr 500 ------- 1 1.0 5.0 3 8
r 1.166117 0 2 tcp 592 ------- 2 0.0 4.0 5 37
+ 1.166117 2 3 tcp 592 ------- 2 0.0 4.0 5 37
r 1.167 1 2 cbr 500 ------- 1 1.0 5.0 31 39
+ 1.167 2 3 cbr 500 ------- 1 1.0 5.0 31 39
+ 1.17 1 2 cbr 500 ------- 1 1.0 5.0 34 42
- 1.17 1 2 cbr 500 ------- 1 1.0 5.0 34 42
r 1.172 1 2 cbr 500 ------- 1 1.0 5.0 32 40
+ 1.172 2 3 cbr 500 ------- 1 1.0 5.0 32 40
- 1.172 2 3 cbr 500 ------- 1 1.0 5.0 12 17
+ 1.175 1 2 cbr 500 ------- 1 1.0 5.0 35 43
- 1.175 1 2 cbr 500 ------- 1 1.0 5.0 35 43
r 1.176667 3 5 cbr 500 ------- 1 1.0 5.0 1 6
r 1.177 1 2 cbr 500 ------- 1 1.0 5.0 33 41
+ 1.177 2 3 cbr 500 ------- 1 1.0 5.0 33 41
r 1.178667 2 3 cbr 500 ------- 1 1.0 5.0 4 9
+ 1.178667 3 5 cbr 500 ------- 1 1.0 5.0 4 9
- 1.178667 3 5 cbr 500 ------- 1 1.0 5.0 4 9
+ 1.18 1 2 cbr 500 ------- 1 1.0 5.0 36 44
- 1.18 1 2 cbr 500 ------- 1 1.0 5.0 36 44
r 1.182 1 2 cbr 500 ------- 1 1.0 5.0 34 42
+ 1.182 2 3 cbr 500 ------- 1 1.0 5.0 34 42
+ 1.185 1 2 cbr 500 ------- 1 1.0 5.0 37 45
- 1.185 1 2 cbr 500 ------- 1 1.0 5.0 37 45
- 1.185333 2 3 cbr 500 ------- 1 1.0 5.0 13 18
r 1.187 1 2 cbr 500 ------- 1 1.0 5.0 35 43
+ 1.187 2 3 cbr 500 ------- 1 1.0 5.0 35 43
+ 1.19 1 2 cbr 500 ------- 1 1.0 5.0 38 46
- 1.19 1 2 cbr 500 ------- 1 1.0 5.0 38 46
r 1.19 3 5 cbr 500 ------- 1 1.0 5.0 2 7
r 1.192 1 2 cbr 500 ------- 1 1.0 5.0 36 44
+ 1.192 2 3 cbr 500 ------- 1 1.0 5.0 36 44
r 1.192 2 3 cbr 500 ------- 1 1.0 5.0 5 10
+ 1.192 3 5 cbr 500 ------- 1 1.0 5.0 5 10
- 1.192 3 5 cbr 500 ------- 1 1.0 5.0 5 10
+ 1.195 1 2 cbr 500 ------- 1 1.0 5.0 39 47
- 1.195 1 2 cbr 500 ------- 1 1.0 5.0 39 47
r 1.197 1 2 cbr 500 ------- 1 1.0 5.0 37 45
+ 1.197 2 3 cbr 500 ------- 1 1.0 5.0 37 45
- 1.198667 2 3 cbr 500 ------- 1 1.0 5.0 14 19
+ 1.2 1 2 cbr 500 ------- 1 1.0 5.0 40 48
- 1.2 1 2 cbr 500 ------- 1 1.0 5.0 40 48
r 1.202 1 2 cbr 500 ------- 1 1.0 5.0 38 46
+ 1.202 2 3 cbr 500 ------- 1 1.0 5.0 38 46
r 1.203333 3 5 cbr 500 ------- 1 1.0 5.0 3 8
+ 1.205 1 2 cbr 500 ------- 1 1.0 5.0 41 49
- 1.205 1 2 cbr 500 ------- 1 1.0 5.0 41 49
r 1.205333 2 3 cbr 500 ------- 1 1.0 5.0 6 11
+ 1.205333 3 5 cbr 500 ------- 1 1.0 5.0 6 11
- 1.205333 3 5 cbr 500 ------- 1 1.0 5.0 6 11
r 1.207 1 2 cbr 500 ------- 1 1.0 5.0 39 47
+ 1.207 2 3 cbr 500 ------- 1 1.0 5.0 39 47
+ 1.21 1 2 cbr 500 ------- 1 1.0 5.0 42 50
- 1.21 1 2 cbr 500 ------- 1 1.0 5.0 42 50
r 1.212 1 2 cbr 500 ------- 1 1.0 5.0 40 48
+ 1.212 2 3 cbr 500 ------- 1 1.0 5.0 40 48
- 1.212 2 3 cbr 500 ------- 1 1.0 5.0 15 20
+ 1.215 1 2 cbr 500 ------- 1 1.0 5.0 43 51
- 1.215 1 2 cbr 500 ------- 1 1.0 5.0 43 51
r 1.216667 3 5 cbr 500 ------- 1 1.0 5.0 4 9
r 1.217 1 2 cbr 500 ------- 1 1.0 5.0 41 49
+ 1.217 2 3 cbr 500 ------- 1 1.0 5.0 41 49
r 1.218667 2 3 cbr 500 ------- 1 1.0 5.0 7 12
+ 1.218667 3 5 cbr 500 ------- 1 1.0 5.0 7 12
- 1.218667 3 5 cbr 500 ------- 1 1.0 5.0 7 12
+ 1.22 1 2 cbr 500 ------- 1 1.0 5.0 44 52
- 1.22 1 2 cbr 500 ------- 1 1.0 5.0 44 52
r 1.222 1 2 cbr 500 ------- 1 1.0 5.0 42 50
+ 1.222 2 3 cbr 500 ------- 1 1.0 5.0 42 50
+ 1.225 1 2 cbr 500 ------- 1 1.0 5.0 45 53
- 1.225 1 2 cbr 500 ------- 1 1.0 5.0 45 53
- 1.225333 2 3 cbr 500 ------- 1 1.0 5.0 16 21
r 1.227 1 2 cbr 500 ------- 1 1.0 5.0 43 51
+ 1.227 2 3 cbr 500 ------- 1 1.0 5.0 43 51
+ 1.23 1 2 cbr 500 ------- 1 1.0 5.0 46 54
- 1.23 1 2 cbr 500 ------- 1 1.0 5.0 46 54
r 1.23 3 5 cbr 500 ------- 1 1.0 5.0 5 10
r 1.232 1 2 cbr 500 ------- 1 1.0 5.0 44 52
+ 1.232 2 3 cbr 500 ------- 1 1.0 5.0 44 52
r 1.232 2 3 cbr 500 ------- 1 1.0 5.0 8 13
+ 1.232 3 5 cbr 500 ------- 1 1.0 5.0 8 13
- 1.232 3 5 cbr 500 ------- 1 1.0 5.0 8 13
+ 1.235 1 2 cbr 500 ------- 1 1.0 5.0 47 55
- 1.235 1 2 cbr 500 ------- 1 1.0 5.0 47 55
r 1.237 1 2 cbr 500 ------- 1 1.0 5.0 45 53
+ 1.237 2 3 cbr 500 ------- 1 1.0 5.0 45 53
- 1.238667 2 3 cbr 500 ------- 1 1.0 5.0 17 22
+ 1.24 1 2 cbr 500 ------- 1 1.0 5.0 48 56
- 1.24 1 2 cbr 500 ------- 1 1.0 5.0 48 56
r 1.242 1 2 cbr 500 ------- 1 1.0 5.0 46 54
+ 1.242 2 3 cbr 500 ------- 1 1.0 5.0 46 54
r 1.243333 3 5 cbr 500 ------- 1 1.0 5.0 6 11
+ 1.245 1 2 cbr 500 ------- 1 1.0 5.0 49 57
- 1.245 1 2 cbr 500 ------- 1 1.0 5.0 49 57
r 1.245333 2 3 cbr 500 ------- 1 1.0 5.0 9 14
+ 1.245333 3 5 cbr 500 ------- 1 1.0 5.0 9 14
- 1.245333 3 5 cbr 500 ------- 1 1.0 5.0 9 14
r 1.247 1 2 cbr 500 ------- 1 1.0 5.0 47 55
+ 1.247 2 3 cbr 500 ------- 1 1.0 5.0 47 55
+ 1.25 1 2 cbr 500 ------- 1 1.0 5.0 50 58
- 1.25 1 2 cbr 500 ------- 1 1.0 5.0 50 58
r 1.252 1 2 cbr 500 ------- 1 1.0 5.0 48 56
+ 1.252 2 3 cbr 500 ------- 1 1.0 5.0 48 56
- 1.252 2 3 cbr 500 ------- 1 1.0 5.0 18 23
+ 1.255 1 2 cbr 500 ------- 1 1.0 5.0 51 59
- 1.255 1 2 cbr 500 ------- 1 1.0 5.0 51 59
r 1.256667 3 5 cbr 500 ------- 1 1.0 5.0 7 12
r 1.257 1 2 cbr 500 ------- 1 1.0 5.0 49 57
+ 1.257 2 3 cbr 500 ------- 1 1.0 5.0 49 57
r 1.258667 2 3 cbr 500 ------- 1 1.0 5.0 10 15
+ 1.258667 3 5 cbr 500 ------- 1 1.0 5.0 10 15
- 1.258667 3 5 cbr 500 ------- 1 1.0 5.0 10 15
+ 1.26 1 2 cbr 500 ------- 1 1.0 5.0 52 60
- 1.26 1 2 cbr 500 ------- 1 1.0 5.0 52 60
r 1.262 1 2 cbr 500 ------- 1 1.0 5.0 50 58
+ 1.262 2 3 cbr 500 ------- 1 1.0 5.0 50 58
+ 1.265 1 2 cbr 500 ------- 1 1.0 5.0 53 61
- 1.265 1 2 cbr 500 ------- 1 1.0 5.0 53 61
- 1.265333 2 3 cbr 500 ------- 1 1.0 5.0 19 24
r 1.267 1 2 cbr 500 ------- 1 1.0 5.0 51 59
+ 1.267 2 3 cbr 500 ------- 1 1.0 5.0 51 59
+ 1.27 1 2 cbr 500 ------- 1 1.0 5.0 54 62
- 1.27 1 2 cbr 500 ------- 1 1.0 5.0 54 62
r 1.27 3 5 cbr 500 ------- 1 1.0 5.0 8 13
r 1.272 1 2 cbr 500 ------- 1 1.0 5.0 52 60
+ 1.272 2 3 cbr 500 ------- 1 1.0 5.0 52 60
r 1.272 2 3 cbr 500 ------- 1 1.0 5.0 11 16
+ 1.272 3 5 cbr 500 ------- 1 1.0 5.0 11 16
- 1.272 3 5 cbr 500 ------- 1 1.0 5.0 11 16
+ 1.275 1 2 cbr 500 ------- 1 1.0 5.0 55 63
- 1.275 1 2 cbr 500 ------- 1 1.0 5.0 55 63
r 1.277 1 2 cbr 500 ------- 1 1.0 5.0 53 61
+ 1.277 2 3 cbr 500 ------- 1 1.0 5.0 53 61
- 1.278667 2 3 cbr 500 ------- 1 1.0 5.0 20 25
+ 1.28 1 2 cbr 500 ------- 1 1.0 5.0 56 64
- 1.28 1 2 cbr 500 ------- 1 1.0 5.0 56 64
r 1.282 1 2 cbr 500 ------- 1 1.0 5.0 54 62
+ 1.282 2 3 cbr 500 ------- 1 1.0 5.0 54 62
r 1.283333 3 5 cbr 500 ------- 1 1.0 5.0 9 14
+ 1.285 1 2 cbr 500 ------- 1 1.0 5.0 57 65
- 1.285 1 2 cbr 500 ------- 1 1.0 5.0 57 65
r 1.285333 2 3 cbr 500 ------- 1 1.0 5.0 12 17
+ 1.285333 3 5 cbr 500 ------- 1 1.0 5.0 12 17
- 1.285333 3 5 cbr 500 ------- 1 1.0 5.0 12 17
r 1.287 1 2 cbr 500 ------- 1 1.0 5.0 55 63
+ 1.287 2 3 cbr 500 ------- 1 1.0 5.0 55 63
+ 1.29 1 2 cbr 500 ------- 1 1.0 5.0 58 66
- 1.29 1 2 cbr 500 ------- 1 1.0 5.0 58 66
r 1.292 1 2 cbr 500 ------- 1 1.0 5.0 56 64
+ 1.292 2 3 cbr 500 ------- 1 1.0 5.0 56 64
- 1.292 2 3 cbr 500 ------- 1 1.0 5.0 21 26
+ 1.295 1 2 cbr 500 ------- 1 1.0 5.0 59 67
- 1.295 1 2 cbr 500 ------- 1 1.0 5.0 59 67
r 1.296667 3 5 cbr 500 ------- 1 1.0 5.0 10 15
r 1.297 1 2 cbr 500 ------- 1 1.0 5.0 57 65
+ 1.297 2 3 cbr 500 ------- 1 1.0 5.0 57 65
r 1.298667 2 3 cbr 500 ------- 1 1.0 5.0 13 18
+ 1.298667 3 5 cbr 500 ------- 1 1.0 5.0 13 18
- 1.298667 3 5 cbr 500 ------- 1 1.0 5.0 13 18
+ 1.3 1 2 cbr 500 ------- 1 1.0 5.0 60 68
- 1.3 1 2 cbr 500 ------- 1 1.0 5.0 60 68
r 1.302 1 2 cbr 500 ------- 1 1.0 5.0 58 66
+ 1.302 2 3 cbr 500 ------- 1 1.0 5.0 58 66
+ 1.305 1 2 cbr 500 ------- 1 1.0 5.0 61 69
- 1.305 1 2 cbr 500 ------- 1 1.0 5.0 61 69
- 1.305333 2 3 cbr 500 ------- 1 1.0 5.0 22 27
r 1.307 1 2 cbr 500 ------- 1 1.0 5.0 59 67
+ 1.307 2 3 cbr 500 ------- 1 1.0 5.0 59 67
+ 1.31 1 2 cbr 500 ------- 1 1.0 5.0 62 70
- 1.31 1 2 cbr 500 ------- 1 1.0 5.0 62 70
r 1.31 3 5 cbr 500 ------- 1 1.0 5.0 11 16
r 1.312 1 2 cbr 500 ------- 1 1.0 5.0 60 68
+ 1.312 2 3 cbr 500 ------- 1 1.0 5.0 60 68
r 1.312 2 3 cbr 500 ------- 1 1.0 5.0 14 19
+ 1.312 3 5 cbr 500 ------- 1 1.0 5.0 14 19
- 1.312 3 5 cbr 500 ------- 1 1.0 5.0 14 19
+ 1.315 1 2 cbr 500 ------- 1 1.0 5.0 63 71
- 1.315 1 2 cbr 500 ------- 1 1.0 5.0 63 71
r 1.317 1 2 cbr 500 ------- 1 1.0 5.0 61 69
+ 1.317 2 3 cbr 500 ------- 1 1.0 5.0 61 69
- 1.318667 2 3 cbr 500 ------- 1 1.0 5.0 23 28
+ 1.32 1 2 cbr 500 ------- 1 1.0 5.0 64 72
- 1.32 1 2 cbr 500 ------- 1 1.0 5.0 64 72
r 1.322 1 2 cbr 500 ------- 1 1.0 5.0 62 70
+ 1.322 2 3 cbr 500 ------- 1 1.0 5.0 62 70
r 1.323333 3 5 cbr 500 ------- 1 1.0 5.0 12 17
+ 1.325 1 2 cbr 500 ------- 1 1.0 5.0 65 73
- 1.325 1 2 cbr 500 ------- 1 1.0 5.0 65 73
r 1.325333 2 3 cbr 500 ------- 1 1.0 5.0 15 20
+ 1.325333 3 5 cbr 500 ------- 1 1.0 5.0 15 20
- 1.325333 3 5 cbr 500 ------- 1 1.0 5.0 15 20
r 1.327 1 2 cbr 500 ------- 1 1.0 5.0 63 71
+ 1.327 2 3 cbr 500 ------- 1 1.0 5.0 63 71
+ 1.33 1 2 cbr 500 ------- 1 1.0 5.0 66 74
- 1.33 1 2 cbr 500 ------- 1 1.0 5.0 66 74
r 1.332 1 2 cbr 500 ------- 1 1.0 5.0 64 72
+ 1.332 2 3 cbr 500 ------- 1 1.0 5.0 64 72
- 1.332 2 3 cbr 500 ------- 1 1.0 5.0 24 29
+ 1.335 1 2 cbr 500 ------- 1 1.0 5.0 67 75
- 1.335 1 2 cbr 500 ------- 1 1.0 5.0 67 75
r 1.336667 3 5 cbr 500 ------- 1 1.0 5.0 13 18
r 1.337 1 2 cbr 500 ------- 1 1.0 5.0 65 73
+ 1.337 2 3 cbr 500 ------- 1 1.0 5.0 65 73
r 1.338667 2 3 cbr 500 ------- 1 1.0 5.0 16 21
+ 1.338667 3 5 cbr 500 ------- 1 1.0 5.0 16 21
- 1.338667 3 5 cbr 500 ------- 1 1.0 5.0 16 21
+ 1.34 1 2 cbr 500 ------- 1 1.0 5.0 68 76
- 1.34 1 2 cbr 500 ------- 1 1.0 5.0 68 76
r 1.342 1 2 cbr 500 ------- 1 1.0 5.0 66 74
+ 1.342 2 3 cbr 500 ------- 1 1.0 5.0 66 74
+ 1.345 1 2 cbr 500 ------- 1 1.0 5.0 69 77
- 1.345 1 2 cbr 500 ------- 1 1.0 5.0 69 77
- 1.345333 2 3 cbr 500 ------- 1 1.0 5.0 25 30
r 1.347 1 2 cbr 500 ------- 1 1.0 5.0 67 75
+ 1.347 2 3 cbr 500 ------- 1 1.0 5.0 67 75
+ 1.35 1 2 cbr 500 ------- 1 1.0 5.0 70 78
- 1.35 1 2 cbr 500 ------- 1 1.0 5.0 70 78
r 1.35 3 5 cbr 500 ------- 1 1.0 5.0 14 19
r 1.352 1 2 cbr 500 ------- 1 1.0 5.0 68 76
+ 1.352 2 3 cbr 500 ------- 1 1.0 5.0 68 76
r 1.352 2 3 cbr 500 ------- 1 1.0 5.0 17 22
+ 1.352 3 5 cbr 500 ------- 1 1.0 5.0 17 22
- 1.352 3 5 cbr 500 ------- 1 1.0 5.0 17 22
+ 1.355 1 2 cbr 500 ------- 1 1.0 5.0 71 79
- 1.355 1 2 cbr 500 ------- 1 1.0 5.0 71 79
r 1.357 1 2 cbr 500 ------- 1 1.0 5.0 69 77
+ 1.357 2 3 cbr 500 ------- 1 1.0 5.0 69 77
- 1.358667 2 3 cbr 500 ------- 1 1.0 5.0 26 31
+ 1.36 1 2 cbr 500 ------- 1 1.0 5.0 72 80
- 1.36 1 2 cbr 500 ------- 1 1.0 5.0 72 80
r 1.362 1 2 cbr 500 ------- 1 1.0 5.0 70 78
+ 1.362 2 3 cbr 500 ------- 1 1.0 5.0 70 78
r 1.363333 3 5 cbr 500 ------- 1 1.0 5.0 15 20
+ 1.365 1 2 cbr 500 ------- 1 1.0 5.0 73 81
- 1.365 1 2 cbr 500 ------- 1 1.0 5.0 73 81
r 1.365333 2 3 cbr 500 ------- 1 1.0 5.0 18 23
+ 1.365333 3 5 cbr 500 ------- 1 1.0 5.0 18 23
- 1.365333 3 5 cbr 500 ------- 1 1.0 5.0 18 23
r 1.367 1 2 cbr 500 ------- 1 1.0 5.0 71 79
+ 1.367 2 3 cbr 500 ------- 1 1.0 5.0 71 79
+ 1.37 1 2 cbr 500 ------- 1 1.0 5.0 74 82
- 1.37 1 2 cbr 500 ------- 1 1.0 5.0 74 82
r 1.372 1 2 cbr 500 ------- 1 1.0 5.0 72 80
+ 1.372 2 3 cbr 500 ------- 1 1.0 5.0 72 80
- 1.372 2 3 cbr 500 ------- 1 1.0 5.0 27 32
+ 1.375 1 2 cbr 500 ------- 1 1.0 5.0 75 83
- 1.375 1 2 cbr 500 ------- 1 1.0 5.0 75 83
r 1.376667 3 5 cbr 500 ------- 1 1.0 5.0 16 21
r 1.377 1 2 cbr 500 ------- 1 1.0 5.0 73 81
+ 1.377 2 3 cbr 500 ------- 1 1.0 5.0 73 81
r 1.378667 2 3 cbr 500 ------- 1 1.0 5.0 19 24
+ 1.378667 3 5 cbr 500 ------- 1 1.0 5.0 19 24
- 1.378667 3 5 cbr 500 ------- 1 1.0 5.0 19 24
+ 1.38 1 2 cbr 500 ------- 1 1.0 5.0 76 84
- 1.38 1 2 cbr 500 ------- 1 1.0 5.0 76 84
r 1.382 1 2 cbr 500 ------- 1 1.0 5.0 74 82
+ 1.382 2 3 cbr 500 ------- 1 1.0 5.0 74 82
d 1.382 2 3 cbr 500 ------- 1 1.0 5.0 74 82
+ 1.385 1 2 cbr 500 ------- 1 1.0 5.0 77 85
- 1.385 1 2 cbr 500 ------- 1 1.0 5.0 77 85
- 1.385333 2 3 cbr 500 ------- 1 1.0 5.0 28 33
r 1.387 1 2 cbr 500 ------- 1 1.0 5.0 75 83
+ 1.387 2 3 cbr 500 ------- 1 1.0 5.0 75 83
+ 1.39 1 2 cbr 500 ------- 1 1.0 5.0 78 86
- 1.39 1 2 cbr 500 ------- 1 1.0 5.0 78 86
r 1.39 3 5 cbr 500 ------- 1 1.0 5.0 17 22
r 1.392 1 2 cbr 500 ------- 1 1.0 5.0 76 84
+ 1.392 2 3 cbr 500 ------- 1 1.0 5.0 76 84
d 1.392 2 3 cbr 500 ------- 1 1.0 5.0 76 84
r 1.392 2 3 cbr 500 ------- 1 1.0 5.0 20 25
+ 1.392 3 5 cbr 500 ------- 1 1.0 5.0 20 25
- 1.392 3 5 cbr 500 ------- 1 1.0 5.0 20 25
+ 1.395 1 2 cbr 500 ------- 1 1.0 5.0 79 87
- 1.395 1 2 cbr 500 ------- 1 1.0 5.0 79 87
r 1.397 1 2 cbr 500 ------- 1 1.0 5.0 77 85
+ 1.397 2 3 cbr 500 ------- 1 1.0 5.0 77 85
d 1.397 2 3 cbr 500 ------- 1 1.0 5.0 77 85
- 1.398667 2 3 cbr 500 ------- 1 1.0 5.0 29 34
+ 1.4 1 2 cbr 500 ------- 1 1.0 5.0 80 88
- 1.4 1 2 cbr 500 ------- 1 1.0 5.0 80 88
r 1.402 1 2 cbr 500 ------- 1 1.0 5.0 78 86
+ 1.402 2 3 cbr 500 ------- 1 1.0 5.0 78 86
r 1.403333 3 5 cbr 500 ------- 1 1.0 5.0 18 23
+ 1.405 1 2 cbr 500 ------- 1 1.0 5.0 81 89
- 1.405 1 2 cbr 500 ------- 1 1.0 5.0 81 89
r 1.405333 2 3 cbr 500 ------- 1 1.0 5.0 21 26
+ 1.405333 3 5 cbr 500 ------- 1 1.0 5.0 21 26
- 1.405333 3 5 cbr 500 ------- 1 1.0 5.0 21 26
r 1.407 1 2 cbr 500 ------- 1 1.0 5.0 79 87
+ 1.407 2 3 cbr 500 ------- 1 1.0 5.0 79 87
d 1.407 2 3 cbr 500 ------- 1 1.0 5.0 79 87
+ 1.41 1 2 cbr 500 ------- 1 1.0 5.0 82 90
- 1.41 1 2 cbr 500 ------- 1 1.0 5.0 82 90
r 1.412 1 2 cbr 500 ------- 1 1.0 5.0 80 88
+ 1.412 2 3 cbr 500 ------- 1 1.0 5.0 80 88
d 1.412 2 3 cbr 500 ------- 1 1.0 5.0 80 88
- 1.412 2 3 tcp 592 ------- 2 0.0 4.0 3 35
+ 1.415 1 2 cbr 500 ------- 1 1.0 5.0 83 91
- 1.415 1 2 cbr 500 ------- 1 1.0 5.0 83 91
r 1.416667 3 5 cbr 500 ------- 1 1.0 5.0 19 24
r 1.417 1 2 cbr 500 ------- 1 1.0 5.0 81 89
+ 1.417 2 3 cbr 500 ------- 1 1.0 5.0 81 89
r 1.418667 2 3 cbr 500 ------- 1 1.0 5.0 22 27
+ 1.418667 3 5 cbr 500 ------- 1 1.0 5.0 22 27
- 1.418667 3 5 cbr 500 ------- 1 1.0 5.0 22 27
+ 1.42 1 2 cbr 500 ------- 1 1.0 5.0 84 92
- 1.42 1 2 cbr 500 ------- 1 1.0 5.0 84 92
r 1.422 1 2 cbr 500 ------- 1 1.0 5.0 82 90
+ 1.422 2 3 cbr 500 ------- 1 1.0 5.0 82 90
d 1.422 2 3 cbr 500 ------- 1 1.0 5.0 82 90
+ 1.425 1 2 cbr 500 ------- 1 1.0 5.0 85 93
- 1.425 1 2 cbr 500 ------- 1 1.0 5.0 85 93
r 1.427 1 2 cbr 500 ------- 1 1.0 5.0 83 91
+ 1.427 2 3 cbr 500 ------- 1 1.0 5.0 83 91
d 1.427 2 3 cbr 500 ------- 1 1.0 5.0 83 91
- 1.427787 2 3 cbr 500 ------- 1 1.0 5.0 30 38
+ 1.43 1 2 cbr 500 ------- 1 1.0 5.0 86 94
- 1.43 1 2 cbr 500 ------- 1 1.0 5.0 86 94
r 1.43 3 5 cbr 500 ------- 1 1.0 5.0 20 25
r 1.432 1 2 cbr 500 ------- 1 1.0 5.0 84 92
+ 1.432 2 3 cbr 500 ------- 1 1.0 5.0 84 92
r 1.432 2 3 cbr 500 ------- 1 1.0 5.0 23 28
+ 1.432 3 5 cbr 500 ------- 1 1.0 5.0 23 28
- 1.432 3 5 cbr 500 ------- 1 1.0 5.0 23 28
+ 1.435 1 2 cbr 500 ------- 1 1.0 5.0 87 95
- 1.435 1 2 cbr 500 ------- 1 1.0 5.0 87 95
r 1.437 1 2 cbr 500 ------- 1 1.0 5.0 85 93
+ 1.437 2 3 cbr 500 ------- 1 1.0 5.0 85 93
d 1.437 2 3 cbr 500 ------- 1 1.0 5.0 85 93
+ 1.44 1 2 cbr 500 ------- 1 1.0 5.0 88 96
- 1.44 1 2 cbr 500 ------- 1 1.0 5.0 88 96
- 1.44112 2 3 tcp 592 ------- 2 0.0 4.0 4 36
r 1.442 1 2 cbr 500 ------- 1 1.0 5.0 86 94
+ 1.442 2 3 cbr 500 ------- 1 1.0 5.0 86 94
r 1.443333 3 5 cbr 500 ------- 1 1.0 5.0 21 26
+ 1.445 1 2 cbr 500 ------- 1 1.0 5.0 89 97
- 1.445 1 2 cbr 500 ------- 1 1.0 5.0 89 97
r 1.445333 2 3 cbr 500 ------- 1 1.0 5.0 24 29
+ 1.445333 3 5 cbr 500 ------- 1 1.0 5.0 24 29
- 1.445333 3 5 cbr 500 ------- 1 1.0 5.0 24 29
r 1.447 1 2 cbr 500 ------- 1 1.0 5.0 87 95
+ 1.447 2 3 cbr 500 ------- 1 1.0 5.0 87 95
d 1.447 2 3 cbr 500 ------- 1 1.0 5.0 87 95
+ 1.45 1 2 cbr 500 ------- 1 1.0 5.0 90 98
- 1.45 1 2 cbr 500 ------- 1 1.0 5.0 90 98
r 1.452 1 2 cbr 500 ------- 1 1.0 5.0 88 96
+ 1.452 2 3 cbr 500 ------- 1 1.0 5.0 88 96
d 1.452 2 3 cbr 500 ------- 1 1.0 5.0 88 96
+ 1.455 1 2 cbr 500 ------- 1 1.0 5.0 91 99
- 1.455 1 2 cbr 500 ------- 1 1.0 5.0 91 99
r 1.456667 3 5 cbr 500 ------- 1 1.0 5.0 22 27
- 1.456907 2 3 tcp 592 ------- 2 0.0 4.0 5 37
r 1.457 1 2 cbr 500 ------- 1 1.0 5.0 89 97
+ 1.457 2 3 cbr 500 ------- 1 1.0 5.0 89 97
r 1.458667 2 3 cbr 500 ------- 1 1.0 5.0 25 30
+ 1.458667 3 5 cbr 500 ------- 1 1.0 5.0 25 30
- 1.458667 3 5 cbr 500 ------- 1 1.0 5.0 25 30
+ 1.46 1 2 cbr 500 ------- 1 1.0 5.0 92 100
- 1.46 1 2 cbr 500 ------- 1 1.0 5.0 92 100
r 1.462 1 2 cbr 500 ------- 1 1.0 5.0 90 98
+ 1.462 2 3 cbr 500 ------- 1 1.0 5.0 90 98
d 1.462 2 3 cbr 500 ------- 1 1.0 5.0 90 98
+ 1.465 1 2 cbr 500 ------- 1 1.0 5.0 93 101
- 1.465 1 2 cbr 500 ------- 1 1.0 5.0 93 101
r 1.467 1 2 cbr 500 ------- 1 1.0 5.0 91 99
+ 1.467 2 3 cbr 500 ------- 1 1.0 5.0 91 99
d 1.467 2 3 cbr 500 ------- 1 1.0 5.0 91 99
+ 1.47 1 2 cbr 500 ------- 1 1.0 5.0 94 102
- 1.47 1 2 cbr 500 ------- 1 1.0 5.0 94 102
r 1.47 3 5 cbr 500 ------- 1 1.0 5.0 23 28
r 1.472 1 2 cbr 500 ------- 1 1.0 5.0 92 100
+ 1.472 2 3 cbr 500 ------- 1 1.0 5.0 92 100
d 1.472 2 3 cbr 500 ------- 1 1.0 5.0 92 100
r 1.472 2 3 cbr 500 ------- 1 1.0 5.0 26 31
+ 1.472 3 5 cbr 500 ------- 1 1.0 5.0 26 31
- 1.472 3 5 cbr 500 ------- 1 1.0 5.0 26 31
- 1.472693 2 3 cbr 500 ------- 1 1.0 5.0 31 39
+ 1.475 1 2 cbr 500 ------- 1 1.0 5.0 95 103
- 1.475 1 2 cbr 500 ------- 1 1.0 5.0 95 103
r 1.477 1 2 cbr 500 ------- 1 1.0 5.0 93 101
+ 1.477 2 3 cbr 500 ------- 1 1.0 5.0 93 101
+ 1.48 1 2 cbr 500 ------- 1 1.0 5.0 96 104
- 1.48 1 2 cbr 500 ------- 1 1.0 5.0 96 104
r 1.482 1 2 cbr 500 ------- 1 1.0 5.0 94 102
+ 1.482 2 3 cbr 500 ------- 1 1.0 5.0 94 102
d 1.482 2 3 cbr 500 ------- 1 1.0 5.0 94 102
r 1.483333 3 5 cbr 500 ------- 1 1.0 5.0 24 29
+ 1.485 1 2 cbr 500 ------- 1 1.0 5.0 97 105
- 1.485 1 2 cbr 500 ------- 1 1.0 5.0 97 105
r 1.485333 2 3 cbr 500 ------- 1 1.0 5.0 27 32
+ 1.485333 3 5 cbr 500 ------- 1 1.0 5.0 27 32
- 1.485333 3 5 cbr 500 ------- 1 1.0 5.0 27 32
- 1.486027 2 3 cbr 500 ------- 1 1.0 5.0 32 40
r 1.487 1 2 cbr 500 ------- 1 1.0 5.0 95 103
+ 1.487 2 3 cbr 500 ------- 1 1.0 5.0 95 103
+ 1.49 1 2 cbr 500 ------- 1 1.0 5.0 98 106
- 1.49 1 2 cbr 500 ------- 1 1.0 5.0 98 106
r 1.492 1 2 cbr 500 ------- 1 1.0 5.0 96 104
+ 1.492 2 3 cbr 500 ------- 1 1.0 5.0 96 104
d 1.492 2 3 cbr 500 ------- 1 1.0 5.0 96 104
+ 1.495 1 2 cbr 500 ------- 1 1.0 5.0 99 107
- 1.495 1 2 cbr 500 ------- 1 1.0 5.0 99 107
r 1.496667 3 5 cbr 500 ------- 1 1.0 5.0 25 30
r 1.497 1 2 cbr 500 ------- 1 1.0 5.0 97 105
+ 1.497 2 3 cbr 500 ------- 1 1.0 5.0 97 105
d 1.497 2 3 cbr 500 ------- 1 1.0 5.0 97 105
r 1.498667 2 3 cbr 500 ------- 1 1.0 5.0 28 33
+ 1.498667 3 5 cbr 500 ------- 1 1.0 5.0 28 33
- 1.498667 3 5 cbr 500 ------- 1 1.0 5.0 28 33
- 1.49936 2 3 cbr 500 ------- 1 1.0 5.0 33 41
+ 1.5 1 2 cbr 500 ------- 1 1.0 5.0 100 108
- 1.5 1 2 cbr 500 ------- 1 1.0 5.0 100 108
r 1.502 1 2 cbr 500 ------- 1 1.0 5.0 98 106
+ 1.502 2 3 cbr 500 ------- 1 1.0 5.0 98 106
+ 1.505 1 2 cbr 500 ------- 1 1.0 5.0 101 109
- 1.505 1 2 cbr 500 ------- 1 1.0 5.0 101 109
r 1.507 1 2 cbr 500 ------- 1 1.0 5.0 99 107
+ 1.507 2 3 cbr 500 ------- 1 1.0 5.0 99 107
d 1.507 2 3 cbr 500 ------- 1 1.0 5.0 99 107
+ 1.51 1 2 cbr 500 ------- 1 1.0 5.0 102 110
- 1.51 1 2 cbr 500 ------- 1 1.0 5.0 102 110
r 1.51 3 5 cbr 500 ------- 1 1.0 5.0 26 31
r 1.512 1 2 cbr 500 ------- 1 1.0 5.0 100 108
+ 1.512 2 3 cbr 500 ------- 1 1.0 5.0 100 108
d 1.512 2 3 cbr 500 ------- 1 1.0 5.0 100 108
r 1.512 2 3 cbr 500 ------- 1 1.0 5.0 29 34
+ 1.512 3 5 cbr 500 ------- 1 1.0 5.0 29 34
- 1.512 3 5 cbr 500 ------- 1 1.0 5.0 29 34
- 1.512693 2 3 cbr 500 ------- 1 1.0 5.0 34 42
+ 1.515 1 2 cbr 500 ------- 1 1.0 5.0 103 111
- 1.515 1 2 cbr 500 ------- 1 1.0 5.0 103 111
r 1.517 1 2 cbr 500 ------- 1 1.0 5.0 101 109
+ 1.517 2 3 cbr 500 ------- 1 1.0 5.0 101 109
+ 1.52 1 2 cbr 500 ------- 1 1.0 5.0 104 112
- 1.52 1 2 cbr 500 ------- 1 1.0 5.0 104 112
r 1.522 1 2 cbr 500 ------- 1 1.0 5.0 102 110
+ 1.522 2 3 cbr 500 ------- 1 1.0 5.0 102 110
d 1.522 2 3 cbr 500 ------- 1 1.0 5.0 102 110
r 1.523333 3 5 cbr 500 ------- 1 1.0 5.0 27 32
+ 1.525 1 2 cbr 500 ------- 1 1.0 5.0 105 113
- 1.525 1 2 cbr 500 ------- 1 1.0 5.0 105 113
- 1.526027 2 3 cbr 500 ------- 1 1.0 5.0 35 43
r 1.527 1 2 cbr 500 ------- 1 1.0 5.0 103 111
+ 1.527 2 3 cbr 500 ------- 1 1.0 5.0 103 111
r 1.527787 2 3 tcp 592 ------- 2 0.0 4.0 3 35
+ 1.527787 3 4 tcp 592 ------- 2 0.0 4.0 3 35
- 1.527787 3 4 tcp 592 ------- 2 0.0 4.0 3 35
+ 1.53 1 2 cbr 500 ------- 1 1.0 5.0 106 114
- 1.53 1 2 cbr 500 ------- 1 1.0 5.0 106 114
r 1.532 1 2 cbr 500 ------- 1 1.0 5.0 104 112
+ 1.532 2 3 cbr 500 ------- 1 1.0 5.0 104 112
d 1.532 2 3 cbr 500 ------- 1 1.0 5.0 104 112
+ 1.535 1 2 cbr 500 ------- 1 1.0 5.0 107 115
- 1.535 1 2 cbr 500 ------- 1 1.0 5.0 107 115
r 1.536667 3 5 cbr 500 ------- 1 1.0 5.0 28 33
r 1.537 1 2 cbr 500 ------- 1 1.0 5.0 105 113
+ 1.537 2 3 cbr 500 ------- 1 1.0 5.0 105 113
d 1.537 2 3 cbr 500 ------- 1 1.0 5.0 105 113
- 1.53936 2 3 cbr 500 ------- 1 1.0 5.0 36 44
+ 1.54 1 2 cbr 500 ------- 1 1.0 5.0 108 116
- 1.54 1 2 cbr 500 ------- 1 1.0 5.0 108 116
r 1.54112 2 3 cbr 500 ------- 1 1.0 5.0 30 38
+ 1.54112 3 5 cbr 500 ------- 1 1.0 5.0 30 38
- 1.54112 3 5 cbr 500 ------- 1 1.0 5.0 30 38
r 1.542 1 2 cbr 500 ------- 1 1.0 5.0 106 114
+ 1.542 2 3 cbr 500 ------- 1 1.0 5.0 106 114
+ 1.545 1 2 cbr 500 ------- 1 1.0 5.0 109 117
- 1.545 1 2 cbr 500 ------- 1 1.0 5.0 109 117