V -t * -v 1.0a5 -a 0
A -t * -n 1 -p 0 -o 0x7fffffff -c 30 -a 1
A -t * -h 1 -m 1073741823 -s 0
c -t * -i 1 -n Blue
c -t * -i 2 -n Red
n -t * -a 4 -s 4 -S UP -v circle -c black -i black
n -t * -a 0 -s 0 -S UP -v circle -c black -i black
n -t * -a 5 -s 5 -S UP -v circle -c black -i black
n -t * -a 1 -s 1 -S UP -v circle -c black -i black
n -t * -a 2 -s 2 -S UP -v circle -c black -i black
n -t * -a 3 -s 3 -S UP -v circle -c black -i black
l -t * -s 0 -d 2 -S UP -r 2000000 -D 0.01 -c black
l -t * -s 1 -d 2 -S UP -r 1000000 -D 0.01 -c black
l -t * -s 2 -d 3 -S UP -r 300000 -D 0.10000000000000001 -c black
l -t * -s 3 -d 4 -S UP -r 500000 -D 0.029999999999999999 -c black
l -t * -s 3 -d 5 -S UP -r 500000 -D 0.040000000000000001 -c black
+ -t 0.1 -s 0 -d 2 -p tcp -e 40 -c 1 -i 0 -a 1 -x {0.0 4.0 0 ------- null}
- -t 0.1 -s 0 -d 2 -p tcp -e 40 -c 1 -i 0 -a 1 -x {0.0 4.0 0 ------- null}
h -t 0.1 -s 0 -d 2 -p tcp -e 40 -c 1 -i 0 -a 1 -x {0.0 4.0 -1 ------- null}
r -t 0.11016 -s 0 -d 2 -p tcp -e 40 -c 1 -i 0 -a 1 -x {0.0 4.0 0 ------- null}
+ -t 0.11016 -s 2 -d 3 -p tcp -e 40 -c 1 -i 0 -a 1 -x {0.0 4.0 0 ------- null}
- -t 0.11016 -s 2 -d 3 -p tcp -e 40 -c 1 -i 0 -a 1 -x {0.0 4.0 0 ------- null}
h -t 0.11016 -s 2 -d 3 -p tcp -e 40 -c 1 -i 0 -a 1 -x {0.0 4.0 -1 ------- null}
r -t 0.211226666666667 -s 2 -d 3 -p tcp -e 40 -c 1 -i 0 -a 1 -x {0.0 4.0 0 ------- null}
+ -t 0.211226666666667 -s 3 -d 4 -p tcp -e 40 -c 1 -i 0 -a 1 -x {0.0 4.0 0 ------- null}
- -t 0.211226666666667 -s 3 -d 4 -p tcp -e 40 -c 1 -i 0 -a 1 -x {0.0 4.0 0 ------- null}
h -t 0.211226666666667 -s 3 -d 4 -p tcp -e 40 -c 1 -i 0 -a 1 -x {0.0 4.0 -1 ------- null}
r -t 0.241866666666667 -s 3 -d 4 -p tcp -e 40 -c 1 -i 0 -a 1 -x {0.0 4.0 0 ------- null}
+ -t 0.241866666666667 -s 4 -d 3 -p ack -e 40 -c 1 -i 1 -a 1 -x {4.0 0.0 0 ------- null}
- -t 0.241866666666667 -s 4 -d 3 -p ack -e 40 -c 1 -i 1 -a 1 -x {4.0 0.0 0 ------- null}
h -t 0.241866666666667 -s 4 -d 3 -p ack -e 40 -c 1 -i 1 -a 1 -x {4.0 0.0 -1 ------- null}
r -t 0.272506666666667 -s 4 -d 3 -p ack -e 40 -c 1 -i 1 -a 1 -x {4.0 0.0 0 ------- null}
+ -t 0.272506666666667 -s 3 -d 2 -p ack -e 40 -c 1 -i 1 -a 1 -x {4.0 0.0 0 ------- null}
- -t 0.272506666666667 -s 3 -d 2 -p ack -e 40 -c 1 -i 1 -a 1 -x {4.0 0.0 0 ------- null}
h -t 0.272506666666667 -s 3 -d 2 -p ack -e 40 -c 1 -i 1 -a 1 -x {4.0 0.0 -1 ------- null}
r -t 0.373573333333333 -s 3 -d 2 -p ack -e 40 -c 1 -i 1 -a 1 -x {4.0 0.0 0 ------- null}
+ -t 0.373573333333333 -s 2 -d 0 -p ack -e 40 -c 1 -i 1 -a 1 -x {4.0 0.0 0 ------- null}
- -t 0.373573333333333 -s 2 -d 0 -p ack -e 40 -c 1 -i 1 -a 1 -x {4.0 0.0 0 ------- null}
h -t 0.373573333333333 -s 2 -d 0 -p ack -e 40 -c 1 -i 1 -a 1 -x {4.0 0.0 -1 ------- null}
r -t 0.383733333333333 -s 2 -d 0 -p ack -e 40 -c 1 -i 1 -a 1 -x {4.0 0.0 0 ------- null}
+ -t 0.383733333333333 -s 0 -d 2 -p tcp -e 1040 -c 1 -i 2 -a 1 -x {0.0 4.0 1 ------- null}
- -t 0.383733333333333 -s 0 -d 2 -p tcp -e 1040 -c 1 -i 2 -a 1 -x {0.0 4.0 1 ------- null}
h -t 0.383733333333333 -s 0 -d 2 -p tcp -e 1040 -c 1 -i 2 -a 1 -x {0.0 4.0 -1 ------- null}
+ -t 0.383733333333333 -s 0 -d 2 -p tcp -e 1040 -c 1 -i 3 -a 1 -x {0.0 4.0 2 ------- null}
- -t 0.387893333333333 -s 0 -d 2 -p tcp -e 1040 -c 1 -i 3 -a 1 -x {0.0 4.0 2 ------- null}
h -t 0.387893333333333 -s 0 -d 2 -p tcp -e 1040 -c 1 -i 3 -a 1 -x {0.0 4.0 -1 ------- null}
r -t 0.397893333333333 -s 0 -d 2 -p tcp -e 1040 -c 1 -i 2 -a 1 -x {0.0 4.0 1 ------- null}
+ -t 0.397893333333333 -s 2 -d 3 -p tcp -e 1040 -c 1 -i 2 -a 1 -x {0.0 4.0 1 ------- null}
- -t 0.397893333333333 -s 2 -d 3 -p tcp -e 1040 -c 1 -i 2 -a 1 -x {0.0 4.0 1 ------- null}
h -t 0.397893333333333 -s 2 -d 3 -p tcp -e 1040 -c 1 -i 2 -a 1 -x {0.0 4.0 -1 ------- null}
r -t 0.402053333333333 -s 0 -d 2 -p tcp -e 1040 -c 1 -i 3 -a 1 -x {0.0 4.0 2 ------- null}
+ -t 0.402053333333333 -s 2 -d 3 -p tcp -e 1040 -c 1 -i 3 -a 1 -x {0.0 4.0 2 ------- null}
- -t 0.425626666666667 -s 2 -d 3 -p tcp -e 1040 -c 1 -i 3 -a 1 -x {0.0 4.0 2 ------- null}
h -t 0.425626666666667 -s 2 -d 3 -p tcp -e 1040 -c 1 -i 3 -a 1 -x {0.0 4.0 -1 ------- null}
+ -t 0.5 -s 1 -d 2 -p cbr -e 100 -c 2 -i 4 -a 2 -x {1.0 5.0 0 ------- null}
- -t 0.5 -s 1 -d 2 -p cbr -e 100 -c 2 -i 4 -a 2 -x {1.0 5.0 0 ------- null}
h -t 0.5 -s 1 -d 2 -p cbr -e 100 -c 2 -i 4 -a 2 -x {1.0 5.0 -1 ------- null}
+ -t 0.508 -s 1 -d 2 -p cbr -e 100 -c 2 -i 5 -a 2 -x {1.0 5.0 1 ------- null}
- -t 0.508 -s 1 -d 2 -p cbr -e 100 -c 2 -i 5 -a 2 -x {1.0 5.0 1 ------- null}
h -t 0.508 -s 1 -d 2 -p cbr -e 100 -c 2 -i 5 -a 2 -x {1.0 5.0 -1 ------- null}
r -t 0.5108 -s 1 -d 2 -p cbr -e 100 -c 2 -i 4 -a 2 -x {1.0 5.0 0 ------- null}
+ -t 0.5108 -s 2 -d 3 -p cbr -e 100 -c 2 -i 4 -a 2 -x {1.0 5.0 0 ------- null}
- -t 0.5108 -s 2 -d 3 -p cbr -e 100 -c 2 -i 4 -a 2 -x {1.0 5.0 0 ------- null}
h -t 0.5108 -s 2 -d 3 -p cbr -e 100 -c 2 -i 4 -a 2 -x {1.0 5.0 -1 ------- null}
+ -t 0.516 -s 1 -d 2 -p cbr -e 100 -c 2 -i 6 -a 2 -x {1.0 5.0 2 ------- null}
- -t 0.516 -s 1 -d 2 -p cbr -e 100 -c 2 -i 6 -a 2 -x {1.0 5.0 2 ------- null}
h -t 0.516 -s 1 -d 2 -p cbr -e 100 -c 2 -i 6 -a 2 -x {1.0 5.0 -1 ------- null}
r -t 0.5188 -s 1 -d 2 -p cbr -e 100 -c 2 -i 5 -a 2 -x {1.0 5.0 1 ------- null}
+ -t 0.5188 -s 2 -d 3 -p cbr -e 100 -c 2 -i 5 -a 2 -x {1.0 5.0 1 ------- null}
- -t 0.5188 -s 2 -d 3 -p cbr -e 100 -c 2 -i 5 -a 2 -x {1.0 5.0 1 ------- null}
h -t 0.5188 -s 2 -d 3 -p cbr -e 100 -c 2 -i 5 -a 2 -x {1.0 5.0 -1 ------- null}
+ -t 0.524 -s 1 -d 2 -p cbr -e 100 -c 2 -i 7 -a 2 -x {1.0 5.0 3 ------- null}
- -t 0.524 -s 1 -d 2 -p cbr -e 100 -c 2 -i 7 -a 2 -x {1.0 5.0 3 ------- null}
h -t 0.524 -s 1 -d 2 -p cbr -e 100 -c 2 -i 7 -a 2 -x {1.0 5.0 -1 ------- null}
r -t 0.525626666666667 -s 2 -d 3 -p tcp -e 1040 -c 1 -i 2 -a 1 -x {0.0 4.0 1 ------- null}
+ -t 0.525626666666667 -s 3 -d 4 -p tcp -e 1040 -c 1 -i 2 -a 1 -x {0.0 4.0 1 ------- null}
- -t 0.525626666666667 -s 3 -d 4 -p tcp -e 1040 -c 1 -i 2 -a 1 -x {0.0 4.0 1 ------- null}
h -t 0.525626666666667 -s 3 -d 4 -p tcp -e 1040 -c 1 -i 2 -a 1 -x {0.0 4.0 -1 ------- null}
r -t 0.5268 -s 1 -d 2 -p cbr -e 100 -c 2 -i 6 -a 2 -x {1.0 5.0 2 ------- null}
+ -t 0.5268 -s 2 -d 3 -p cbr -e 100 -c 2 -i 6 -a 2 -x {1.0 5.0 2 ------- null}
- -t 0.5268 -s 2 -d 3 -p cbr -e 100 -c 2 -i 6 -a 2 -x {1.0 5.0 2 ------- null}
h -t 0.5268 -s 2 -d 3 -p cbr -e 100 -c 2 -i 6 -a 2 -x {1.0 5.0 -1 ------- null}
+ -t 0.532 -s 1 -d 2 -p cbr -e 100 -c 2 -i 8 -a 2 -x {1.0 5.0 4 ------- null}
- -t 0.532 -s 1 -d 2 -p cbr -e 100 -c 2 -i 8 -a 2 -x {1.0 5.0 4 ------- null}
h -t 0.532 -s 1 -d 2 -p cbr -e 100 -c 2 -i 8 -a 2 -x {1.0 5.0 -1 ------- null}
r -t 0.5348 -s 1 -d 2 -p cbr -e 100 -c 2 -i 7 -a 2 -x {1.0 5.0 3 ------- null}
+ -t 0.5348 -s 2 -d 3 -p cbr -e 100 -c 2 -i 7 -a 2 -x {1.0 5.0 3 ------- null}
- -t 0.5348 -s 2 -d 3 -p cbr -e 100 -c 2 -i 7 -a 2 -x {1.0 5.0 3 ------- null}
h -t 0.5348 -s 2 -d 3 -p cbr -e 100 -c 2 -i 7 -a 2 -x {1.0 5.0 -1 ------- null}
+ -t 0.54 -s 1 -d 2 -p cbr -e 100 -c 2 -i 9 -a 2 -x {1.0 5.0 5 ------- null}
- -t 0.54 -s 1 -d 2 -p cbr -e 100 -c 2 -i 9 -a 2 -x {1.0 5.0 5 ------- null}
h -t 0.54 -s 1 -d 2 -p cbr -e 100 -c 2 -i 9 -a 2 -x {1.0 5.0 -1 ------- null}
r -t 0.5428 -s 1 -d 2 -p cbr -e 100 -c 2 -i 8 -a 2 -x {1.0 5.0 4 ------- null}
+ -t 0.5428 -s 2 -d 3 -p cbr -e 100 -c 2 -i 8 -a 2 -x {1.0 5.0 4 ------- null}
- -t 0.5428 -s 2 -d 3 -p cbr -e 100 -c 2 -i 8 -a 2 -x {1.0 5.0 4 ------- null}
h -t 0.5428 -s 2 -d 3 -p cbr -e 100 -c 2 -i 8 -a 2 -x {1.0 5.0 -1 ------- null}
+ -t 0.548 -s 1 -d 2 -p cbr -e 100 -c 2 -i 10 -a 2 -x {1.0 5.0 6 ------- null}
- -t 0.548 -s 1 -d 2 -p cbr -e 100 -c 2 -i 10 -a 2 -x {1.0 5.0 6 ------- null}
h -t 0.548 -s 1 -d 2 -p cbr -e 100 -c 2 -i 10 -a 2 -x {1.0 5.0 -1 ------- null}
r -t 0.5508 -s 1 -d 2 -p cbr -e 100 -c 2 -i 9 -a 2 -x {1.0 5.0 5 ------- null}
+ -t 0.5508 -s 2 -d 3 -p cbr -e 100 -c 2 -i 9 -a 2 -x {1.0 5.0 5 ------- null}
- -t 0.5508 -s 2 -d 3 -p cbr -e 100 -c 2 -i 9 -a 2 -x {1.0 5.0 5 ------- null}
h -t 0.5508 -s 2 -d 3 -p cbr -e 100 -c 2 -i 9 -a 2 -x {1.0 5.0 -1 ------- null}
r -t 0.55336 -s 2 -d 3 -p tcp -e 1040 -c 1 -i 3 -a 1 -x {0.0 4.0 2 ------- null}
+ -t 0.55336 -s 3 -d 4 -p tcp -e 1040 -c 1 -i 3 -a 1 -x {0.0 4.0 2 ------- null}
- -t 0.55336 -s 3 -d 4 -p tcp -e 1040 -c 1 -i 3 -a 1 -x {0.0 4.0 2 ------- null}
h -t 0.55336 -s 3 -d 4 -p tcp -e 1040 -c 1 -i 3 -a 1 -x {0.0 4.0 -1 ------- null}
+ -t 0.556 -s 1 -d 2 -p cbr -e 100 -c 2 -i 11 -a 2 -x {1.0 5.0 7 ------- null}
- -t 0.556 -s 1 -d 2 -p cbr -e 100 -c 2 -i 11 -a 2 -x {1.0 5.0 7 ------- null}
h -t 0.556 -s 1 -d 2 -p cbr -e 100 -c 2 -i 11 -a 2 -x {1.0 5.0 -1 ------- null}
r -t 0.5588 -s 1 -d 2 -p cbr -e 100 -c 2 -i 10 -a 2 -x {1.0 5.0 6 ------- null}
+ -t 0.5588 -s 2 -d 3 -p cbr -e 100 -c 2 -i 10 -a 2 -x {1.0 5.0 6 ------- null}
- -t 0.5588 -s 2 -d 3 -p cbr -e 100 -c 2 -i 10 -a 2 -x {1.0 5.0 6 ------- null}
h -t 0.5588 -s 2 -d 3 -p cbr -e 100 -c 2 -i 10 -a 2 -x {1.0 5.0 -1 ------- null}
+ -t 0.564 -s 1 -d 2 -p cbr -e 100 -c 2 -i 12 -a 2 -x {1.0 5.0 8 ------- null}
- -t 0.564 -s 1 -d 2 -p cbr -e 100 -c 2 -i 12 -a 2 -x {1.0 5.0 8 ------- null}
h -t 0.564 -s 1 -d 2 -p cbr -e 100 -c 2 -i 12 -a 2 -x {1.0 5.0 -1 ------- null}
r -t 0.5668 -s 1 -d 2 -p cbr -e 100 -c 2 -i 11 -a 2 -x {1.0 5.0 7 ------- null}
+ -t 0.5668 -s 2 -d 3 -p cbr -e 100 -c 2 -i 11 -a 2 -x {1.0 5.0 7 ------- null}
- -t 0.5668 -s 2 -d 3 -p cbr -e 100 -c 2 -i 11 -a 2 -x {1.0 5.0 7 ------- null}
h -t 0.5668 -s 2 -d 3 -p cbr -e 100 -c 2 -i 11 -a 2 -x {1.0 5.0 -1 ------- null}
+ -t 0.572 -s 1 -d 2 -p cbr -e 100 -c 2 -i 13 -a 2 -x {1.0 5.0 9 ------- null}
- -t 0.572 -s 1 -d 2 -p cbr -e 100 -c 2 -i 13 -a 2 -x {1.0 5.0 9 ------- null}
h -t 0.572 -s 1 -d 2 -p cbr -e 100 -c 2 -i 13 -a 2 -x {1.0 5.0 -1 ------- null}
r -t 0.572266666666667 -s 3 -d 4 -p tcp -e 1040 -c 1 -i 2 -a 1 -x {0.0 4.0 1 ------- null}
+ -t 0.572266666666667 -s 4 -d 3 -p ack -e 40 -c 1 -i 14 -a 1 -x {4.0 0.0 1 ------- null}
- -t 0.572266666666667 -s 4 -d 3 -p ack -e 40 -c 1 -i 14 -a 1 -x {4.0 0.0 1 ------- null}
h -t 0.572266666666667 -s 4 -d 3 -p ack -e 40 -c 1 -i 14 -a 1 -x {4.0 0.0 -1 ------- null}
r -t 0.5748 -s 1 -d 2 -p cbr -e 100 -c 2 -i 12 -a 2 -x {1.0 5.0 8 ------- null}
+ -t 0.5748 -s 2 -d 3 -p cbr -e 100 -c 2 -i 12 -a 2 -x {1.0 5.0 8 ------- null}
- -t 0.5748 -s 2 -d 3 -p cbr -e 100 -c 2 -i 12 -a 2 -x {1.0 5.0 8 ------- null}
h -t 0.5748 -s 2 -d 3 -p cbr -e 100 -c 2 -i 12 -a 2 -x {1.0 5.0 -1 ------- null}
+ -t 0.58 -s 1 -d 2 -p cbr -e 100 -c 2 -i 15 -a 2 -x {1.0 5.0 10 ------- null}
- -t 0.58 -s 1 -d 2 -p cbr -e 100 -c 2 -i 15 -a 2 -x {1.0 5.0 10 ------- null}
h -t 0.58 -s 1 -d 2 -p cbr -e 100 -c 2 -i 15 -a 2 -x {1.0 5.0 -1 ------- null}
r -t 0.5828 -s 1 -d 2 -p cbr -e 100 -c 2 -i 13 -a 2 -x {1.0 5.0 9 ------- null}
+ -t 0.5828 -s 2 -d 3 -p cbr -e 100 -c 2 -i 13 -a 2 -x {1.0 5.0 9 ------- null}
- -t 0.5828 -s 2 -d 3 -p cbr -e 100 -c 2 -i 13 -a 2 -x {1.0 5.0 9 ------- null}
h -t 0.5828 -s 2 -d 3 -p cbr -e 100 -c 2 -i 13 -a 2 -x {1.0 5.0 -1 ------- null}
+ -t 0.588 -s 1 -d 2 -p cbr -e 100 -c 2 -i 16 -a 2 -x {1.0 5.0 11 ------- null}
- -t 0.588 -s 1 -d 2 -p cbr -e 100 -c 2 -i 16 -a 2 -x {1.0 5.0 11 ------- null}
h -t 0.588 -s 1 -d 2 -p cbr -e 100 -c 2 -i 16 -a 2 -x {1.0 5.0 -1 ------- null}
r -t 0.5908 -s 1 -d 2 -p cbr -e 100 -c 2 -i 15 -a 2 -x {1.0 5.0 10 ------- null}
+ -t 0.5908 -s 2 -d 3 -p cbr -e 100 -c 2 -i 15 -a 2 -x {1.0 5.0 10 ------- null}
- -t 0.5908 -s 2 -d 3 -p cbr -e 100 -c 2 -i 15 -a 2 -x {1.0 5.0 10 ------- null}
h -t 0.5908 -s 2 -d 3 -p cbr -e 100 -c 2 -i 15 -a 2 -x {1.0 5.0 -1 ------- null}
+ -t 0.596 -s 1 -d 2 -p cbr -e 100 -c 2 -i 17 -a 2 -x {1.0 5.0 12 ------- null}
- -t 0.596 -s 1 -d 2 -p cbr -e 100 -c 2 -i 17 -a 2 -x {1.0 5.0 12 ------- null}
h -t 0.596 -s 1 -d 2 -p cbr -e 100 -c 2 -i 17 -a 2 -x {1.0 5.0 -1 ------- null}
r -t 0.5988 -s 1 -d 2 -p cbr -e 100 -c 2 -i 16 -a 2 -x {1.0 5.0 11 ------- null}
+ -t 0.5988 -s 2 -d 3 -p cbr -e 100 -c 2 -i 16 -a 2 -x {1.0 5.0 11 ------- null}
- -t 0.5988 -s 2 -d 3 -p cbr -e 100 -c 2 -i 16 -a 2 -x {1.0 5.0 11 ------- null}
h -t 0.5988 -s 2 -d 3 -p cbr -e 100 -c 2 -i 16 -a 2 -x {1.0 5.0 -1 ------- null}
r -t 0.6 -s 3 -d 4 -p tcp -e 1040 -c 1 -i 3 -a 1 -x {0.0 4.0 2 ------- null}
+ -t 0.6 -s 4 -d 3 -p ack -e 40 -c 1 -i 18 -a 1 -x {4.0 0.0 2 ------- null}
- -t 0.6 -s 4 -d 3 -p ack -e 40 -c 1 -i 18 -a 1 -x {4.0 0.0 2 ------- null}
h -t 0.6 -s 4 -d 3 -p ack -e 40 -c 1 -i 18 -a 1 -x {4.0 0.0 -1 ------- null}
r -t 0.602906666666667 -s 4 -d 3 -p ack -e 40 -c 1 -i 14 -a 1 -x {4.0 0.0 1 ------- null}
+ -t 0.602906666666667 -s 3 -d 2 -p ack -e 40 -c 1 -i 14 -a 1 -x {4.0 0.0 1 ------- null}
- -t 0.602906666666667 -s 3 -d 2 -p ack -e 40 -c 1 -i 14 -a 1 -x {4.0 0.0 1 ------- null}
h -t 0.602906666666667 -s 3 -d 2 -p ack -e 40 -c 1 -i 14 -a 1 -x {4.0 0.0 -1 ------- null}
+ -t 0.604 -s 1 -d 2 -p cbr -e 100 -c 2 -i 19 -a 2 -x {1.0 5.0 13 ------- null}
- -t 0.604 -s 1 -d 2 -p cbr -e 100 -c 2 -i 19 -a 2 -x {1.0 5.0 13 ------- null}
h -t 0.604 -s 1 -d 2 -p cbr -e 100 -c 2 -i 19 -a 2 -x {1.0 5.0 -1 ------- null}
r -t 0.6068 -s 1 -d 2 -p cbr -e 100 -c 2 -i 17 -a 2 -x {1.0 5.0 12 ------- null}
+ -t 0.6068 -s 2 -d 3 -p cbr -e 100 -c 2 -i 17 -a 2 -x {1.0 5.0 12 ------- null}
- -t 0.6068 -s 2 -d 3 -p cbr -e 100 -c 2 -i 17 -a 2 -x {1.0 5.0 12 ------- null}
h -t 0.6068 -s 2 -d 3 -p cbr -e 100 -c 2 -i 17 -a 2 -x {1.0 5.0 -1 ------- null}
+ -t 0.612 -s 1 -d 2 -p cbr -e 100 -c 2 -i 20 -a 2 -x {1.0 5.0 14 ------- null}
- -t 0.612 -s 1 -d 2 -p cbr -e 100 -c 2 -i 20 -a 2 -x {1.0 5.0 14 ------- null}
h -t 0.612 -s 1 -d 2 -p cbr -e 100 -c 2 -i 20 -a 2 -x {1.0 5.0 -1 ------- null}
r -t 0.613466666666667 -s 2 -d 3 -p cbr -e 100 -c 2 -i 4 -a 2 -x {1.0 5.0 0 ------- null}
+ -t 0.613466666666667 -s 3 -d 5 -p cbr -e 100 -c 2 -i 4 -a 2 -x {1.0 5.0 0 ------- null}
- -t 0.613466666666667 -s 3 -d 5 -p cbr -e 100 -c 2 -i 4 -a 2 -x {1.0 5.0 0 ------- null}
h -t 0.613466666666667 -s 3 -d 5 -p cbr -e 100 -c 2 -i 4 -a 2 -x {1.0 5.0 -1 ------- null}
r -t 0.6148 -s 1 -d 2 -p cbr -e 100 -c 2 -i 19 -a 2 -x {1.0 5.0 13 ------- null}
+ -t 0.6148 -s 2 -d 3 -p cbr -e 100 -c 2 -i 19 -a 2 -x {1.0 5.0 13 ------- null}
- -t 0.6148 -s 2 -d 3 -p cbr -e 100 -c 2 -i 19 -a 2 -x {1.0 5.0 13 ------- null}
h -t 0.6148 -s 2 -d 3 -p cbr -e 100 -c 2 -i 19 -a 2 -x {1.0 5.0 -1 ------- null}
+ -t 0.62 -s 1 -d 2 -p cbr -e 100 -c 2 -i 21 -a 2 -x {1.0 5.0 15 ------- null}
- -t 0.62 -s 1 -d 2 -p cbr -e 100 -c 2 -i 21 -a 2 -x {1.0 5.0 15 ------- null}
h -t 0.62 -s 1 -d 2 -p cbr -e 100 -c 2 -i 21 -a 2 -x {1.0 5.0 -1 ------- null}
r -t 0.621466666666667 -s 2 -d 3 -p cbr -e 100 -c 2 -i 5 -a 2 -x {1.0 5.0 1 ------- null}
+ -t 0.621466666666667 -s 3 -d 5 -p cbr -e 100 -c 2 -i 5 -a 2 -x {1.0 5.0 1 ------- null}
- -t 0.621466666666667 -s 3 -d 5 -p cbr -e 100 -c 2 -i 5 -a 2 -x {1.0 5.0 1 ------- null}
h -t 0.621466666666667 -s 3 -d 5 -p cbr -e 100 -c 2 -i 5 -a 2 -x {1.0 5.0 -1 ------- null}
r -t 0.6228 -s 1 -d 2 -p cbr -e 100 -c 2 -i 20 -a 2 -x {1.0 5.0 14 ------- null}
+ -t 0.6228 -s 2 -d 3 -p cbr -e 100 -c 2 -i 20 -a 2 -x {1.0 5.0 14 ------- null}
- -t 0.6228 -s 2 -d 3 -p cbr -e 100 -c 2 -i 20 -a 2 -x {1.0 5.0 14 ------- null}
h -t 0.6228 -s 2 -d 3 -p cbr -e 100 -c 2 -i 20 -a 2 -x {1.0 5.0 -1 ------- null}
+ -t 0.628 -s 1 -d 2 -p cbr -e 100 -c 2 -i 22 -a 2 -x {1.0 5.0 16 ------- null}
- -t 0.628 -s 1 -d 2 -p cbr -e 100 -c 2 -i 22 -a 2 -x {1.0 5.0 16 ------- null}
h -t 0.628 -s 1 -d 2 -p cbr -e 100 -c 2 -i 22 -a 2 -x {1.0 5.0 -1 ------- null}
r -t 0.629466666666667 -s 2 -d 3 -p cbr -e 100 -c 2 -i 6 -a 2 -x {1.0 5.0 2 ------- null}
+ -t 0.629466666666667 -s 3 -d 5 -p cbr -e 100 -c 2 -i 6 -a 2 -x {1.0 5.0 2 ------- null}
- -t 0.629466666666667 -s 3 -d 5 -p cbr -e 100 -c 2 -i 6 -a 2 -x {1.0 5.0 2 ------- null}
h -t 0.629466666666667 -s 3 -d 5 -p cbr -e 100 -c 2 -i 6 -a 2 -x {1.0 5.0 -1 ------- null}
r -t 0.63064 -s 4 -d 3 -p ack -e 40 -c 1 -i 18 -a 1 -x {4.0 0.0 2 ------- null}
+ -t 0.63064 -s 3 -d 2 -p ack -e 40 -c 1 -i 18 -a 1 -x {4.0 0.0 2 ------- null}
- -t 0.63064 -s 3 -d 2 -p ack -e 40 -c 1 -i 18 -a 1 -x {4.0 0.0 2 ------- null}
h -t 0.63064 -s 3 -d 2 -p ack -e 40 -c 1 -i 18 -a 1 -x {4.0 0.0 -1 ------- null}
r -t 0.6308 -s 1 -d 2 -p cbr -e 100 -c 2 -i 21 -a 2 -x {1.0 5.0 15 ------- null}
+ -t 0.6308 -s 2 -d 3 -p cbr -e 100 -c 2 -i 21 -a 2 -x {1.0 5.0 15 ------- null}
- -t 0.6308 -s 2 -d 3 -p cbr -e 100 -c 2 -i 21 -a 2 -x {1.0 5.0 15 ------- null}
h -t 0.6308 -s 2 -d 3 -p cbr -e 100 -c 2 -i 21 -a 2 -x {1.0 5.0 -1 ------- null}
+ -t 0.636 -s 1 -d 2 -p cbr -e 100 -c 2 -i 23 -a 2 -x {1.0 5.0 17 ------- null}
- -t 0.636 -s 1 -d 2 -p cbr -e 100 -c 2 -i 23 -a 2 -x {1.0 5.0 17 ------- null}
h -t 0.636 -s 1 -d 2 -p cbr -e 100 -c 2 -i 23 -a 2 -x {1.0 5.0 -1 ------- null}
r -t 0.637466666666667 -s 2 -d 3 -p cbr -e 100 -c 2 -i 7 -a 2 -x {1.0 5.0 3 ------- null}
+ -t 0.637466666666667 -s 3 -d 5 -p cbr -e 100 -c 2 -i 7 -a 2 -x {1.0 5.0 3 ------- null}
- -t 0.637466666666667 -s 3 -d 5 -p cbr -e 100 -c 2 -i 7 -a 2 -x {1.0 5.0 3 ------- null}
h -t 0.637466666666667 -s 3 -d 5 -p cbr -e 100 -c 2 -i 7 -a 2 -x {1.0 5.0 -1 ------- null}
r -t 0.6388 -s 1 -d 2 -p cbr -e 100 -c 2 -i 22 -a 2 -x {1.0 5.0 16 ------- null}
+ -t 0.6388 -s 2 -d 3 -p cbr -e 100 -c 2 -i 22 -a 2 -x {1.0 5.0 16 ------- null}
- -t 0.6388 -s 2 -d 3 -p cbr -e 100 -c 2 -i 22 -a 2 -x {1.0 5.0 16 ------- null}
h -t 0.6388 -s 2 -d 3 -p cbr -e 100 -c 2 -i 22 -a 2 -x {1.0 5.0 -1 ------- null}
+ -t 0.644 -s 1 -d 2 -p cbr -e 100 -c 2 -i 24 -a 2 -x {1.0 5.0 18 ------- null}
- -t 0.644 -s 1 -d 2 -p cbr -e 100 -c 2 -i 24 -a 2 -x {1.0 5.0 18 ------- null}
h -t 0.644 -s 1 -d 2 -p cbr -e 100 -c 2 -i 24 -a 2 -x {1.0 5.0 -1 ------- null}
r -t 0.645466666666667 -s 2 -d 3 -p cbr -e 100 -c 2 -i 8 -a 2 -x {1.0 5.0 4 ------- null}
+ -t 0.645466666666667 -s 3 -d 5 -p cbr -e 100 -c 2 -i 8 -a 2 -x {1.0 5.0 4 ------- null}
- -t 0.645466666666667 -s 3 -d 5 -p cbr -e 100 -c 2 -i 8 -a 2 -x {1.0 5.0 4 ------- null}
h -t 0.645466666666667 -s 3 -d 5 -p cbr -e 100 -c 2 -i 8 -a 2 -x {1.0 5.0 -1 ------- null}
r -t 0.6468 -s 1 -d 2 -p cbr -e 100 -c 2 -i 23 -a 2 -x {1.0 5.0 17 ------- null}
+ -t 0.6468 -s 2 -d 3 -p cbr -e 100 -c 2 -i 23 -a 2 -x {1.0 5.0 17 ------- null}
- -t 0.6468 -s 2 -d 3 -p cbr -e 100 -c 2 -i 23 -a 2 -x {1.0 5.0 17 ------- null}
h -t 0.6468 -s 2 -d 3 -p cbr -e 100 -c 2 -i 23 -a 2 -x {1.0 5.0 -1 ------- null}
+ -t 0.652 -s 1 -d 2 -p cbr -e 100 -c 2 -i 25 -a 2 -x {1.0 5.0 19 ------- null}
- -t 0.652 -s 1 -d 2 -p cbr -e 100 -c 2 -i 25 -a 2 -x {1.0 5.0 19 ------- null}
h -t 0.652 -s 1 -d 2 -p cbr -e 100 -c 2 -i 25 -a 2 -x {1.0 5.0 -1 ------- null}
r -t 0.653466666666667 -s 2 -d 3 -p cbr -e 100 -c 2 -i 9 -a 2 -x {1.0 5.0 5 ------- null}
+ -t 0.653466666666667 -s 3 -d 5 -p cbr -e 100 -c 2 -i 9 -a 2 -x {1.0 5.0 5 ------- null}
- -t 0.653466666666667 -s 3 -d 5 -p cbr -e 100 -c 2 -i 9 -a 2 -x {1.0 5.0 5 ------- null}
h -t 0.653466666666667 -s 3 -d 5 -p cbr -e 100 -c 2 -i 9 -a 2 -x {1.0 5.0 -1 ------- null}
r -t 0.6548 -s 1 -d 2 -p cbr -e 100 -c 2 -i 24 -a 2 -x {1.0 5.0 18 ------- null}
+ -t 0.6548 -s 2 -d 3 -p cbr -e 100 -c 2 -i 24 -a 2 -x {1.0 5.0 18 ------- null}
- -t 0.6548 -s 2 -d 3 -p cbr -e 100 -c 2 -i 24 -a 2 -x {1.0 5.0 18 ------- null}
h -t 0.6548 -s 2 -d 3 -p cbr -e 100 -c 2 -i 24 -a 2 -x {1.0 5.0 -1 ------- null}
r -t 0.655066666666667 -s 3 -d 5 -p cbr -e 100 -c 2 -i 4 -a 2 -x {1.0 5.0 0 ------- null}
+ -t 0.66 -s 1 -d 2 -p cbr -e 100 -c 2 -i 26 -a 2 -x {1.0 5.0 20 ------- null}
- -t 0.66 -s 1 -d 2 -p cbr -e 100 -c 2 -i 26 -a 2 -x {1.0 5.0 20 ------- null}
h -t 0.66 -s 1 -d 2 -p cbr -e 100 -c 2 -i 26 -a 2 -x {1.0 5.0 -1 ------- null}
r -t 0.661466666666667 -s 2 -d 3 -p cbr -e 100 -c 2 -i 10 -a 2 -x {1.0 5.0 6 ------- null}
+ -t 0.661466666666667 -s 3 -d 5 -p cbr -e 100 -c 2 -i 10 -a 2 -x {1.0 5.0 6 ------- null}
- -t 0.661466666666667 -s 3 -d 5 -p cbr -e 100 -c 2 -i 10 -a 2 -x {1.0 5.0 6 ------- null}
h -t 0.661466666666667 -s 3 -d 5 -p cbr -e 100 -c 2 -i 10 -a 2 -x {1.0 5.0 -1 ------- null}
r -t 0.6628 -s 1 -d 2 -p cbr -e 100 -c 2 -i 25 -a 2 -x {1.0 5.0 19 ------- null}
+ -t 0.6628 -s 2 -d 3 -p cbr -e 100 -c 2 -i 25 -a 2 -x {1.0 5.0 19 ------- null}
- -t 0.6628 -s 2 -d 3 -p cbr -e 100 -c 2 -i 25 -a 2 -x {1.0 5.0 19 ------- null}
h -t 0.6628 -s 2 -d 3 -p cbr -e 100 -c 2 -i 25 -a 2 -x {1.0 5.0 -1 ------- null}
r -t 0.663066666666667 -s 3 -d 5 -p cbr -e 100 -c 2 -i 5 -a 2 -x {1.0 5.0 1 ------- null}
+ -t 0.668 -s 1 -d 2 -p cbr -e 100 -c 2 -i 27 -a 2 -x {1.0 5.0 21 ------- null}
- -t 0.668 -s 1 -d 2 -p cbr -e 100 -c 2 -i 27 -a 2 -x {1.0 5.0 21 ------- null}
h -t 0.668 -s 1 -d 2 -p cbr -e 100 -c 2 -i 27 -a 2 -x {1.0 5.0 -1 ------- null}
r -t 0.669466666666667 -s 2 -d 3 -p cbr -e 100 -c 2 -i 11 -a 2 -x {1.0 5.0 7 ------- null}
+ -t 0.669466666666667 -s 3 -d 5 -p cbr -e 100 -c 2 -i 11 -a 2 -x {1.0 5.0 7 ------- null}
- -t 0.669466666666667 -s 3 -d 5 -p cbr -e 100 -c 2 -i 11 -a 2 -x {1.0 5.0 7 ------- null}
h -t 0.669466666666667 -s 3 -d 5 -p cbr -e 100 -c 2 -i 11 -a 2 -x {1.0 5.0 -1 ------- null}
r -t 0.6708 -s 1 -d 2 -p cbr -e 100 -c 2 -i 26 -a 2 -x {1.0 5.0 20 ------- null}
+ -t 0.6708 -s 2 -d 3 -p cbr -e 100 -c 2 -i 26 -a 2 -x {1.0 5.0 20 ------- null}
- -t 0.6708 -s 2 -d 3 -p cbr -e 100 -c 2 -i 26 -a 2 -x {1.0 5.0 20 ------- null}
h -t 0.6708 -s 2 -d 3 -p cbr -e 100 -c 2 -i 26 -a 2 -x {1.0 5.0 -1 ------- null}
r -t 0.671066666666667 -s 3 -d 5 -p cbr -e 100 -c 2 -i 6 -a 2 -x {1.0 5.0 2 ------- null}
+ -t 0.676 -s 1 -d 2 -p cbr -e 100 -c 2 -i 28 -a 2 -x {1.0 5.0 22 ------- null}
- -t 0.676 -s 1 -d 2 -p cbr -e 100 -c 2 -i 28 -a 2 -x {1.0 5.0 22 ------- null}
h -t 0.676 -s 1 -d 2 -p cbr -e 100 -c 2 -i 28 -a 2 -x {1.0 5.0 -1 ------- null}
r -t 0.677466666666667 -s 2 -d 3 -p cbr -e 100 -c 2 -i 12 -a 2 -x {1.0 5.0 8 ------- null}
+ -t 0.677466666666667 -s 3 -d 5 -p cbr -e 100 -c 2 -i 12 -a 2 -x {1.0 5.0 8 ------- null}
- -t 0.677466666666667 -s 3 -d 5 -p cbr -e 100 -c 2 -i 12 -a 2 -x {1.0 5.0 8 ------- null}
h -t 0.677466666666667 -s 3 -d 5 -p cbr -e 100 -c 2 -i 12 -a 2 -x {1.0 5.0 -1 ------- null}
r -t 0.6788 -s 1 -d 2 -p cbr -e 100 -c 2 -i 27 -a 2 -x {1.0 5.0 21 ------- null}
+ -t 0.6788 -s 2 -d 3 -p cbr -e 100 -c 2 -i 27 -a 2 -x {1.0 5.0 21 ------- null}
- -t 0.6788 -s 2 -d 3 -p cbr -e 100 -c 2 -i 27 -a 2 -x {1.0 5.0 21 ------- null}
h -t 0.6788 -s 2 -d 3 -p cbr -e 100 -c 2 -i 27 -a 2 -x {1.0 5.0 -1 ------- null}
r -t 0.679066666666667 -s 3 -d 5 -p cbr -e 100 -c 2 -i 7 -a 2 -x {1.0 5.0 3 ------- null}
+ -t 0.684 -s 1 -d 2 -p cbr -e 100 -c 2 -i 29 -a 2 -x {1.0 5.0 23 ------- null}
- -t 0.684 -s 1 -d 2 -p cbr -e 100 -c 2 -i 29 -a 2 -x {1.0 5.0 23 ------- null}
h -t 0.684 -s 1 -d 2 -p cbr -e 100 -c 2 -i 29 -a 2 -x {1.0 5.0 -1 ------- null}
r -t 0.685466666666667 -s 2 -d 3 -p cbr -e 100 -c 2 -i 13 -a 2 -x {1.0 5.0 9 ------- null}
+ -t 0.685466666666667 -s 3 -d 5 -p cbr -e 100 -c 2 -i 13 -a 2 -x {1.0 5.0 9 ------- null}
- -t 0.685466666666667 -s 3 -d 5 -p cbr -e 100 -c 2 -i 13 -a 2 -x {1.0 5.0 9 ------- null}
h -t 0.685466666666667 -s 3 -d 5 -p cbr -e 100 -c 2 -i 13 -a 2 -x {1.0 5.0 -1 ------- null}
r -t 0.6868 -s 1 -d 2 -p cbr -e 100 -c 2 -i 28 -a 2 -x {1.0 5.0 22 ------- null}
+ -t 0.6868 -s 2 -d 3 -p cbr -e 100 -c 2 -i 28 -a 2 -x {1.0 5.0 22 ------- null}
- -t 0.6868 -s 2 -d 3 -p cbr -e 100 -c 2 -i 28 -a 2 -x {1.0 5.0 22 ------- null}
h -t 0.6868 -s 2 -d 3 -p cbr -e 100 -c 2 -i 28 -a 2 -x {1.0 5.0 -1 ------- null}
r -t 0.687066666666667 -s 3 -d 5 -p cbr -e 100 -c 2 -i 8 -a 2 -x {1.0 5.0 4 ------- null}
+ -t 0.692 -s 1 -d 2 -p cbr -e 100 -c 2 -i 30 -a 2 -x {1.0 5.0 24 ------- null}
- -t 0.692 -s 1 -d 2 -p cbr -e 100 -c 2 -i 30 -a 2 -x {1.0 5.0 24 ------- null}
h -t 0.692 -s 1 -d 2 -p cbr -e 100 -c 2 -i 30 -a 2 -x {1.0 5.0 -1 ------- null}
r -t 0.693466666666667 -s 2 -d 3 -p cbr -e 100 -c 2 -i 15 -a 2 -x {1.0 5.0 10 ------- null}
+ -t 0.693466666666667 -s 3 -d 5 -p cbr -e 100 -c 2 -i 15 -a 2 -x {1.0 5.0 10 ------- null}
- -t 0.693466666666667 -s 3 -d 5 -p cbr -e 100 -c 2 -i 15 -a 2 -x {1.0 5.0 10 ------- null}
h -t 0.693466666666667 -s 3 -d 5 -p cbr -e 100 -c 2 -i 15 -a 2 -x {1.0 5.0 -1 ------- null}
r -t 0.6948 -s 1 -d 2 -p cbr -e 100 -c 2 -i 29 -a 2 -x {1.0 5.0 23 ------- null}
+ -t 0.6948 -s 2 -d 3 -p cbr -e 100 -c 2 -i 29 -a 2 -x {1.0 5.0 23 ------- null}
- -t 0.6948 -s 2 -d 3 -p cbr -e 100 -c 2 -i 29 -a 2 -x {1.0 5.0 23 ------- null}
h -t 0.6948 -s 2 -d 3 -p cbr -e 100 -c 2 -i 29 -a 2 -x {1.0 5.0 -1 ------- null}
r -t 0.695066666666667 -s 3 -d 5 -p cbr -e 100 -c 2 -i 9 -a 2 -x {1.0 5.0 5 ------- null}
+ -t 0.7 -s 1 -d 2 -p cbr -e 100 -c 2 -i 31 -a 2 -x {1.0 5.0 25 ------- null}
- -t 0.7 -s 1 -d 2 -p cbr -e 100 -c 2 -i 31 -a 2 -x {1.0 5.0 25 ------- null}
h -t 0.7 -s 1 -d 2 -p cbr -e 100 -c 2 -i 31 -a 2 -x {1.0 5.0 -1 ------- null}
r -t 0.701466666666667 -s 2 -d 3 -p cbr -e 100 -c 2 -i 16 -a 2 -x {1.0 5.0 11 ------- null}
+ -t 0.701466666666667 -s 3 -d 5 -p cbr -e 100 -c 2 -i 16 -a 2 -x {1.0 5.0 11 ------- null}
- -t 0.701466666666667 -s 3 -d 5 -p cbr -e 100 -c 2 -i 16 -a 2 -x {1.0 5.0 11 ------- null}
h -t 0.701466666666667 -s 3 -d 5 -p cbr -e 100 -c 2 -i 16 -a 2 -x {1.0 5.0 -1 ------- null}
r -t 0.7028 -s 1 -d 2 -p cbr -e 100 -c 2 -i 30 -a 2 -x {1.0 5.0 24 ------- null}
+ -t 0.7028 -s 2 -d 3 -p cbr -e 100 -c 2 -i 30 -a 2 -x {1.0 5.0 24 ------- null}
- -t 0.7028 -s 2 -d 3 -p cbr -e 100 -c 2 -i 30 -a 2 -x {1.0 5.0 24 ------- null}
h -t 0.7028 -s 2 -d 3 -p cbr -e 100 -c 2 -i 30 -a 2 -x {1.0 5.0 -1 ------- null}
r -t 0.703066666666667 -s 3 -d 5 -p cbr -e 100 -c 2 -i 10 -a 2 -x {1.0 5.0 6 ------- null}
r -t 0.703973333333333 -s 3 -d 2 -p ack -e 40 -c 1 -i 14 -a 1 -x {4.0 0.0 1 ------- null}
+ -t 0.703973333333333 -s 2 -d 0 -p ack -e 40 -c 1 -i 14 -a 1 -x {4.0 0.0 1 ------- null}
- -t 0.703973333333333 -s 2 -d 0 -p ack -e 40 -c 1 -i 14 -a 1 -x {4.0 0.0 1 ------- null}
h -t 0.703973333333333 -s 2 -d 0 -p ack -e 40 -c 1 -i 14 -a 1 -x {4.0 0.0 -1 ------- null}
+ -t 0.708 -s 1 -d 2 -p cbr -e 100 -c 2 -i 32 -a 2 -x {1.0 5.0 26 ------- null}
- -t 0.708 -s 1 -d 2 -p cbr -e 100 -c 2 -i 32 -a 2 -x {1.0 5.0 26 ------- null}
h -t 0.708 -s 1 -d 2 -p cbr -e 100 -c 2 -i 32 -a 2 -x {1.0 5.0 -1 ------- null}
r -t 0.709466666666667 -s 2 -d 3 -p cbr -e 100 -c 2 -i 17 -a 2 -x {1.0 5.0 12 ------- null}
+ -t 0.709466666666667 -s 3 -d 5 -p cbr -e 100 -c 2 -i 17 -a 2 -x {1.0 5.0 12 ------- null}
- -t 0.709466666666667 -s 3 -d 5 -p cbr -e 100 -c 2 -i 17 -a 2 -x {1.0 5.0 12 ------- null}
h -t 0.709466666666667 -s 3 -d 5 -p cbr -e 100 -c 2 -i 17 -a 2 -x {1.0 5.0 -1 ------- null}
r -t 0.7108 -s 1 -d 2 -p cbr -e 100 -c 2 -i 31 -a 2 -x {1.0 5.0 25 ------- null}
+ -t 0.7108 -s 2 -d 3 -p cbr -e 100 -c 2 -i 31 -a 2 -x {1.0 5.0 25 ------- null}
- -t 0.7108 -s 2 -d 3 -p cbr -e 100 -c 2 -i 31 -a 2 -x {1.0 5.0 25 ------- null}
h -t 0.7108 -s 2 -d 3 -p cbr -e 100 -c 2 -i 31 -a 2 -x {1.0 5.0 -1 ------- null}
r -t 0.711066666666667 -s 3 -d 5 -p cbr -e 100 -c 2 -i 11 -a 2 -x {1.0 5.0 7 ------- null}
r -t 0.714133333333333 -s 2 -d 0 -p ack -e 40 -c 1 -i 14 -a 1 -x {4.0 0.0 1 ------- null}
+ -t 0.714133333333333 -s 0 -d 2 -p tcp -e 1040 -c 1 -i 33 -a 1 -x {0.0 4.0 3 ------- null}
- -t 0.714133333333333 -s 0 -d 2 -p tcp -e 1040 -c 1 -i 33 -a 1 -x {0.0 4.0 3 ------- null}
h -t 0.714133333333333 -s 0 -d 2 -p tcp -e 1040 -c 1 -i 33 -a 1 -x {0.0 4.0 -1 ------- null}
+ -t 0.714133333333333 -s 0 -d 2 -p tcp -e 1040 -c 1 -i 34 -a 1 -x {0.0 4.0 4 ------- null}
+ -t 0.716 -s 1 -d 2 -p cbr -e 100 -c 2 -i 35 -a 2 -x {1.0 5.0 27 ------- null}
- -t 0.716 -s 1 -d 2 -p cbr -e 100 -c 2 -i 35 -a 2 -x {1.0 5.0 27 ------- null}
h -t 0.716 -s 1 -d 2 -p cbr -e 100 -c 2 -i 35 -a 2 -x {1.0 5.0 -1 ------- null}
r -t 0.717466666666667 -s 2 -d 3 -p cbr -e 100 -c 2 -i 19 -a 2 -x {1.0 5.0 13 ------- null}
+ -t 0.717466666666667 -s 3 -d 5 -p cbr -e 100 -c 2 -i 19 -a 2 -x {1.0 5.0 13 ------- null}
- -t 0.717466666666667 -s 3 -d 5 -p cbr -e 100 -c 2 -i 19 -a 2 -x {1.0 5.0 13 ------- null}
h -t 0.717466666666667 -s 3 -d 5 -p cbr -e 100 -c 2 -i 19 -a 2 -x {1.0 5.0 -1 ------- null}
- -t 0.718293333333333 -s 0 -d 2 -p tcp -e 1040 -c 1 -i 34 -a 1 -x {0.0 4.0 4 ------- null}
h -t 0.718293333333333 -s 0 -d 2 -p tcp -e 1040 -c 1 -i 34 -a 1 -x {0.0 4.0 -1 ------- null}
r -t 0.7188 -s 1 -d 2 -p cbr -e 100 -c 2 -i 32 -a 2 -x {1.0 5.0 26 ------- null}
+ -t 0.7188 -s 2 -d 3 -p cbr -e 100 -c 2 -i 32 -a 2 -x {1.0 5.0 26 ------- null}
- -t 0.7188 -s 2 -d 3 -p cbr -e 100 -c 2 -i 32 -a 2 -x {1.0 5.0 26 ------- null}
h -t 0.7188 -s 2 -d 3 -p cbr -e 100 -c 2 -i 32 -a 2 -x {1.0 5.0 -1 ------- null}
r -t 0.719066666666667 -s 3 -d 5 -p cbr -e 100 -c 2 -i 12 -a 2 -x {1.0 5.0 8 ------- null}
+ -t 0.724 -s 1 -d 2 -p cbr -e 100 -c 2 -i 36 -a 2 -x {1.0 5.0 28 ------- null}
- -t 0.724 -s 1 -d 2 -p cbr -e 100 -c 2 -i 36 -a 2 -x {1.0 5.0 28 ------- null}
h -t 0.724 -s 1 -d 2 -p cbr -e 100 -c 2 -i 36 -a 2 -x {1.0 5.0 -1 ------- null}
r -t 0.725466666666667 -s 2 -d 3 -p cbr -e 100 -c 2 -i 20 -a 2 -x {1.0 5.0 14 ------- null}
+ -t 0.725466666666667 -s 3 -d 5 -p cbr -e 100 -c 2 -i 20 -a 2 -x {1.0 5.0 14 ------- null}
- -t 0.725466666666667 -s 3 -d 5 -p cbr -e 100 -c 2 -i 20 -a 2 -x {1.0 5.0 14 ------- null}
h -t 0.725466666666667 -s 3 -d 5 -p cbr -e 100 -c 2 -i 20 -a 2 -x {1.0 5.0 -1 ------- null}
r -t 0.7268 -s 1 -d 2 -p cbr -e 100 -c 2 -i 35 -a 2 -x {1.0 5.0 27 ------- null}
+ -t 0.7268 -s 2 -d 3 -p cbr -e 100 -c 2 -i 35 -a 2 -x {1.0 5.0 27 ------- null}
- -t 0.7268 -s 2 -d 3 -p cbr -e 100 -c 2 -i 35 -a 2 -x {1.0 5.0 27 ------- null}
h -t 0.7268 -s 2 -d 3 -p cbr -e 100 -c 2 -i 35 -a 2 -x {1.0 5.0 -1 ------- null}
r -t 0.727066666666667 -s 3 -d 5 -p cbr -e 100 -c 2 -i 13 -a 2 -x {1.0 5.0 9 ------- null}
r -t 0.728293333333333 -s 0 -d 2 -p tcp -e 1040 -c 1 -i 33 -a 1 -x {0.0 4.0 3 ------- null}
+ -t 0.728293333333333 -s 2 -d 3 -p tcp -e 1040 -c 1 -i 33 -a 1 -x {0.0 4.0 3 ------- null}
- -t 0.729466666666667 -s 2 -d 3 -p tcp -e 1040 -c 1 -i 33 -a 1 -x {0.0 4.0 3 ------- null}
h -t 0.729466666666667 -s 2 -d 3 -p tcp -e 1040 -c 1 -i 33 -a 1 -x {0.0 4.0 -1 ------- null}
r -t 0.731706666666667 -s 3 -d 2 -p ack -e 40 -c 1 -i 18 -a 1 -x {4.0 0.0 2 ------- null}
+ -t 0.731706666666667 -s 2 -d 0 -p ack -e 40 -c 1 -i 18 -a 1 -x {4.0 0.0 2 ------- null}